
     Program PWSCF v.7.4.1 starts on  8Oct2025 at  0:23:27 

     This program is part of the open-source Quantum ESPRESSO suite
     for quantum simulation of materials; please cite
         "P. Giannozzi et al., J. Phys.:Condens. Matter 21 395502 (2009);
         "P. Giannozzi et al., J. Phys.:Condens. Matter 29 465901 (2017);
         "P. Giannozzi et al., J. Chem. Phys. 152 154105 (2020);
          URL http://www.quantum-espresso.org", 
     in publications or presentations arising from this work. More details at
     http://www.quantum-espresso.org/quote

     Parallel version (MPI), running on     1 processors

     MPI processes distributed on     1 nodes
     157 MiB available memory on the printing compute node when the environment starts

     Waiting for input...
     Reading input from standard input
Warning: card &CELL ignored
Warning: card / ignored

     Current dimensions of program PWSCF are:
     Max number of different atomic species (ntypx) = 10
     Max number of k-points (npk) =  40000
     Max angular momentum in pseudopotentials (lmaxx) =  4
     Message from routine setup:
     using ibrav=0 with symmetry is DISCOURAGED, use correct ibrav instead

     Subspace diagonalization in iterative solution of the eigenvalue problem:
     a serial algorithm will be used


     G-vector sticks info
     --------------------
     sticks:   dense  smooth     PW     G-vecs:    dense   smooth      PW
     Sum         475     475    151                 6855     6855    1243

     Using Slab Decomposition



     bravais-lattice index     =            0
     lattice parameter (alat)  =       7.5604  a.u.
     unit-cell volume          =     305.5804 (a.u.)^3
     number of atoms/cell      =            2
     number of atomic types    =            1
     number of electrons       =        28.00
     number of Kohn-Sham states=           14
     kinetic-energy cutoff     =      30.0000  Ry
     charge density cutoff     =     120.0000  Ry
     scf convergence threshold =      1.0E-07
     mixing beta               =       0.5000
     number of iterations used =            8  plain     mixing
     Exchange-correlation=  SLA  PZ   NOGX NOGC
                           (   1   1   0   0   0   0   0)

     celldm(1)=   7.560435  celldm(2)=   0.000000  celldm(3)=   0.000000
     celldm(4)=   0.000000  celldm(5)=   0.000000  celldm(6)=   0.000000

     crystal axes: (cart. coord. in units of alat)
               a(1) = (   0.000000   0.707107   0.707107 )  
               a(2) = (   0.707107   0.000000   0.707107 )  
               a(3) = (   0.707107   0.707107   0.000000 )  

     reciprocal axes: (cart. coord. in units 2 pi/alat)
               b(1) = ( -0.707107  0.707107  0.707107 )  
               b(2) = (  0.707107 -0.707107  0.707107 )  
               b(3) = (  0.707107  0.707107 -0.707107 )  


     PseudoPot. # 1 for Ge read from file:
     /home/bond/Software/QE/qe-7.4.1/pseudo/ge_lda_v1.4.uspp.F.UPF
     MD5 check sum: bf9d52b59cc8a669818bb2b52e0c2ba0
     Pseudo is Ultrasoft + core correction, Zval = 14.0
     Generated by new atomic code, or converted to UPF format
     Using radial grid of  873 points,  6 beta functions with: 
                l(1) =   0
                l(2) =   0
                l(3) =   1
                l(4) =   1
                l(5) =   2
                l(6) =   2
     Q(r) pseudized with  8 coefficients,  rinner =    1.400   1.400   1.400
                                                       1.400   1.400

     atomic species   valence    mass     pseudopotential
     Ge               14.00    72.63000     Ge( 1.00)

      4 Sym. Ops. (no inversion) found



   Cartesian axes

     site n.     atom                  positions (alat units)
         1        Ge     tau(   1) = (   0.0000000   0.0000000   0.0707107  )
         2        Ge     tau(   2) = (   0.3535534   0.3535534   0.3535534  )

     number of k points=    18
                       cart. coord. in units 2pi/alat
        k(    1) = (   0.0000000   0.0000000   0.0000000), wk =   0.0312500
        k(    2) = (   0.1767767   0.1767767  -0.1767767), wk =   0.1250000
        k(    3) = (  -0.3535534  -0.3535534   0.3535534), wk =   0.0625000
        k(    4) = (   0.3535534   0.0000000   0.0000000), wk =   0.1250000
        k(    5) = (  -0.1767767  -0.5303301   0.5303301), wk =   0.2500000
        k(    6) = (   0.0000000  -0.3535534   0.3535534), wk =   0.2500000
        k(    7) = (  -0.7071068   0.0000000   0.0000000), wk =   0.0625000
        k(    8) = (  -0.7071068   0.3535534   0.0000000), wk =   0.1250000
        k(    9) = (   0.1767767  -0.1767767  -0.1767767), wk =   0.1250000
        k(   10) = (  -0.3535534   0.3535534   0.3535534), wk =   0.0625000
        k(   11) = (   0.0000000   0.0000000   0.3535534), wk =   0.0625000
        k(   12) = (  -0.5303301   0.1767767   0.5303301), wk =   0.2500000
        k(   13) = (   0.5303301   0.5303301  -0.1767767), wk =   0.1250000
        k(   14) = (  -0.5303301   0.5303301   0.1767767), wk =   0.1250000
        k(   15) = (   0.3535534   0.3535534   0.0000000), wk =   0.0625000
        k(   16) = (  -0.3535534   0.3535534   0.0000000), wk =   0.0625000
        k(   17) = (   0.0000000   0.0000000  -0.7071068), wk =   0.0312500
        k(   18) = (   0.7071068   0.0000000   0.3535534), wk =   0.0625000

     Dense  grid:     6855 G-vectors     FFT dimensions: (  27,  27,  27)

     Estimated max dynamical RAM per process >      30.01 MB

     Check: negative core charge=   -0.000124

     Initial potential from superposition of free atoms

     starting charge      27.9986, renormalised to      28.0000
     Starting wfcs are   18 randomized atomic wfcs

     total cpu time spent up to now is        0.8 secs

     Self-consistent Calculation

     iteration #  1     ecut=    30.00 Ry     beta= 0.50
     Davidson diagonalization with overlap
     ethr =  1.00E-02,  avg # of iterations =  1.8

     Threshold (ethr) on eigenvalues was too large:
     Diagonalizing with lowered threshold

     Davidson diagonalization with overlap
     ethr =  1.40E-04,  avg # of iterations =  2.0

     total cpu time spent up to now is        1.8 secs

     total energy              =    -426.08934075 Ry
     estimated scf accuracy    <       0.04134032 Ry

     iteration #  2     ecut=    30.00 Ry     beta= 0.50
     Davidson diagonalization with overlap
     ethr =  1.48E-04,  avg # of iterations =  1.1

     total cpu time spent up to now is        2.3 secs

     total energy              =    -426.08799566 Ry
     estimated scf accuracy    <       0.00693189 Ry

     iteration #  3     ecut=    30.00 Ry     beta= 0.50
     Davidson diagonalization with overlap
     ethr =  2.48E-05,  avg # of iterations =  2.1

     total cpu time spent up to now is        2.8 secs

     total energy              =    -426.08857410 Ry
     estimated scf accuracy    <       0.00008709 Ry

     iteration #  4     ecut=    30.00 Ry     beta= 0.50
     Davidson diagonalization with overlap
     ethr =  3.11E-07,  avg # of iterations =  3.6

     total cpu time spent up to now is        3.4 secs

     total energy              =    -426.08860503 Ry
     estimated scf accuracy    <       0.00000763 Ry

     iteration #  5     ecut=    30.00 Ry     beta= 0.50
     Davidson diagonalization with overlap
     ethr =  2.73E-08,  avg # of iterations =  2.6

     total cpu time spent up to now is        4.0 secs

     total energy              =    -426.08860659 Ry
     estimated scf accuracy    <       0.00000021 Ry

     iteration #  6     ecut=    30.00 Ry     beta= 0.50
     Davidson diagonalization with overlap
     ethr =  7.58E-10,  avg # of iterations =  4.7

     total cpu time spent up to now is        4.8 secs

     End of self-consistent calculation

          k = 0.0000 0.0000 0.0000 (   869 PWs)   bands (ev):

   -16.9183 -16.9133 -16.8525 -16.8161 -16.7933 -16.6409 -16.6134 -16.6091
   -16.5850 -16.5823  -4.7148   6.8885   7.9940   8.4102

          k = 0.1768 0.1768-0.1768 (   854 PWs)   bands (ev):

   -16.9645 -16.9498 -16.8439 -16.7689 -16.7635 -16.6598 -16.6551 -16.5759
   -16.5587 -16.5329  -3.9319   2.8195   6.9657   8.0226

          k =-0.3536-0.3536 0.3536 (   862 PWs)   bands (ev):

   -16.9912 -16.9827 -16.8321 -16.7803 -16.7551 -16.6619 -16.6609 -16.5795
   -16.5325 -16.5045  -2.2956  -0.2975   6.3497   7.4855

          k = 0.3536 0.0000 0.0000 (   849 PWs)   bands (ev):

   -16.9621 -16.9490 -16.8453 -16.7566 -16.7343 -16.7053 -16.6518 -16.5812
   -16.5429 -16.5389  -3.7202   3.0855   6.2338   6.4028

          k =-0.1768-0.5303 0.5303 (   845 PWs)   bands (ev):

   -16.9963 -16.9726 -16.8240 -16.7620 -16.7307 -16.6734 -16.6650 -16.6001
   -16.5204 -16.4925  -2.0115   0.0318   4.8148   5.9031

          k = 0.0000-0.3536 0.3536 (   847 PWs)   bands (ev):

   -16.9757 -16.9364 -16.8149 -16.7788 -16.7409 -16.6759 -16.6490 -16.6117
   -16.5506 -16.5178  -2.8902   1.5572   4.2066   6.8678

          k =-0.7071 0.0000 0.0000 (   846 PWs)   bands (ev):

   -16.9844 -16.9844 -16.7942 -16.7941 -16.6990 -16.6989 -16.6368 -16.6368
   -16.5025 -16.5025  -0.9077  -0.9076   5.2471   5.2472

          k =-0.7071 0.3536 0.0000 (   848 PWs)   bands (ev):

   -16.9838 -16.9176 -16.8029 -16.7867 -16.7110 -16.7099 -16.6347 -16.6322
   -16.5568 -16.5059  -1.4321   0.0015   3.8765   4.6287

          k = 0.1768-0.1768-0.1768 (   854 PWs)   bands (ev):

   -16.9204 -16.9110 -16.8336 -16.8028 -16.7711 -16.6577 -16.6274 -16.6068
   -16.5750 -16.5739  -4.0444   3.9147   6.3356   7.9783

          k =-0.3536 0.3536 0.3536 (   862 PWs)   bands (ev):

   -16.9285 -16.9030 -16.8293 -16.7992 -16.7485 -16.6842 -16.6452 -16.6057
   -16.5768 -16.5742  -2.9751   1.3167   5.9250   7.5561

          k = 0.0000 0.0000 0.3536 (   849 PWs)   bands (ev):

   -16.9236 -16.9087 -16.8206 -16.8024 -16.7868 -16.6637 -16.6105 -16.5998
   -16.5790 -16.5771  -3.7449   3.5746   5.4970   6.5171

          k =-0.5303 0.1768 0.5303 (   845 PWs)   bands (ev):

   -16.9756 -16.9360 -16.8132 -16.7558 -16.7273 -16.6908 -16.6702 -16.6149
   -16.5428 -16.5175  -2.4883   1.2773   3.9618   6.0148

          k = 0.5303 0.5303-0.1768 (   845 PWs)   bands (ev):

   -16.9837 -16.9147 -16.8201 -16.7813 -16.7374 -16.6909 -16.6392 -16.5843
   -16.5814 -16.5084  -2.1642   0.4635   4.0850   6.1780

          k =-0.5303 0.5303 0.1768 (   845 PWs)   bands (ev):

   -16.9283 -16.8968 -16.8066 -16.7950 -16.7713 -16.6714 -16.6368 -16.6127
   -16.5685 -16.5614  -2.5389   1.3731   4.7698   5.1724

          k = 0.3536 0.3536 0.0000 (   847 PWs)   bands (ev):

   -17.0051 -16.9581 -16.8494 -16.7489 -16.7328 -16.6924 -16.6591 -16.5687
   -16.5450 -16.4851  -2.5981   0.6339   4.4018   7.3075

          k =-0.3536 0.3536 0.0000 (   847 PWs)   bands (ev):

   -16.9292 -16.9050 -16.8149 -16.7951 -16.7138 -16.7108 -16.6423 -16.6213
   -16.5645 -16.5621  -3.1068   2.5797   4.2914   5.8691

          k = 0.0000 0.0000-0.7071 (   846 PWs)   bands (ev):

   -16.9317 -16.8819 -16.8114 -16.7902 -16.7878 -16.6750 -16.6304 -16.5940
   -16.5868 -16.5540  -1.7127   0.2660   4.6090   5.4082

          k = 0.7071 0.0000 0.3536 (   848 PWs)   bands (ev):

   -16.9888 -16.9887 -16.7846 -16.7846 -16.6978 -16.6977 -16.6485 -16.6485
   -16.4988 -16.4988  -0.8197  -0.8197   4.3785   4.3785

     highest occupied level (ev):     8.4102

!    total energy              =    -426.08860670 Ry
     estimated scf accuracy    <       0.00000005 Ry

     The total energy is the sum of the following terms:
     one-electron contribution =    -280.34503831 Ry
     hartree contribution      =     165.52204719 Ry
     xc contribution           =    -114.51639751 Ry
     ewald contribution        =    -196.74921808 Ry

     convergence has been achieved in   6 iterations

     Forces acting on atoms (cartesian axes, Ry/au):

     atom    1 type  1   force =     0.00000000    0.00000000   -0.11558115
     atom    2 type  1   force =     0.00000000    0.00000000    0.11558115

     Total force =     0.163456     Total SCF correction =     0.001752


     Computing stress (Cartesian axis) and pressure

          total   stress  (Ry/bohr**3)                   (kbar)     P=     -125.93
  -0.00079894   0.00050568   0.00000000         -117.53       74.39        0.00
   0.00050568  -0.00079894   0.00000000           74.39     -117.53        0.00
   0.00000000   0.00000000  -0.00097031            0.00        0.00     -142.74

     Message from routine punch:
     Nothing written, as per user request (disk_io='none')

     init_run     :      0.60s CPU      0.63s WALL (       1 calls)
     electrons    :      3.92s CPU      3.97s WALL (       1 calls)
     forces       :      0.06s CPU      0.06s WALL (       1 calls)
     stress       :      0.40s CPU      0.40s WALL (       1 calls)

     Called by init_run:
     wfcinit      :      0.27s CPU      0.28s WALL (       1 calls)
     potinit      :      0.01s CPU      0.01s WALL (       1 calls)
     hinit0       :      0.29s CPU      0.29s WALL (       1 calls)

     Called by electrons:
     c_bands      :      3.07s CPU      3.09s WALL (       7 calls)
     sum_band     :      0.71s CPU      0.72s WALL (       7 calls)
     v_of_rho     :      0.01s CPU      0.01s WALL (       7 calls)
     newd         :      0.15s CPU      0.18s WALL (       7 calls)
     mix_rho      :      0.01s CPU      0.01s WALL (       7 calls)

     Called by c_bands:
     init_us_2    :      0.10s CPU      0.10s WALL (     306 calls)
     cegterg      :      2.84s CPU      2.86s WALL (     126 calls)

     Called by *egterg:
     cdiaghg      :      0.12s CPU      0.12s WALL (     430 calls)
     h_psi        :      2.67s CPU      2.70s WALL (     466 calls)
     s_psi        :      0.05s CPU      0.05s WALL (     466 calls)
     g_psi        :      0.01s CPU      0.01s WALL (     322 calls)

     Called by h_psi:
     h_psi:calbec :      0.08s CPU      0.08s WALL (     466 calls)
     vloc_psi     :      2.52s CPU      2.54s WALL (     466 calls)
     add_vuspsi   :      0.06s CPU      0.06s WALL (     466 calls)

     General routines
     calbec       :      0.14s CPU      0.14s WALL (     898 calls)
     fft          :      0.09s CPU      0.09s WALL (      37 calls)
     ffts         :      0.00s CPU      0.00s WALL (       7 calls)
     fftw         :      2.68s CPU      2.70s WALL (   11384 calls)

     Parallel routines

     PWSCF        :      5.13s CPU      5.22s WALL


   This run was terminated on:   0:23:32   8Oct2025            

=------------------------------------------------------------------------------=
   JOB DONE.
=------------------------------------------------------------------------------=
