Header of the LAMMPS data file 

4 atoms 
1 atom types

0.0 4.06  xlo xhi
0.0 4.06  ylo yhi
0.0 4.06  zlo zhi

Masses 

1  26.9815385

Atoms # atomic 

1 1 0.00000 0.00000 0.00000 
2 1 0.00000 2.03000 2.03000 
3 1 2.03000 0.00000 2.03000 
4 1 2.03000 2.03000 0.00000 
