
     Program PWSCF v.7.4.1 starts on 21Oct2025 at  1:10:54 

     This program is part of the open-source Quantum ESPRESSO suite
     for quantum simulation of materials; please cite
         "P. Giannozzi et al., J. Phys.:Condens. Matter 21 395502 (2009);
         "P. Giannozzi et al., J. Phys.:Condens. Matter 29 465901 (2017);
         "P. Giannozzi et al., J. Chem. Phys. 152 154105 (2020);
          URL http://www.quantum-espresso.org", 
     in publications or presentations arising from this work. More details at
     http://www.quantum-espresso.org/quote

     Parallel version (MPI), running on     2 processors

     MPI processes distributed on     1 nodes
     153 MiB available memory on the printing compute node when the environment starts

     Waiting for input...
     Reading input from standard input

     Current dimensions of program PWSCF are:
     Max number of different atomic species (ntypx) = 10
     Max number of k-points (npk) =  40000
     Max angular momentum in pseudopotentials (lmaxx) =  4
     file Fe.pbe-nd-rrkjus.UPF: wavefunction(s)  4S renormalized
     Found identity + ( -0.5000 -0.5000 -0.5000) symmetry
     This is a supercell, fractional translations are disabled
     Message from routine setup:
     using ibrav=0 with symmetry is DISCOURAGED, use correct ibrav instead

     R & G space division:  proc/nbgrp/npool/nimage =       2
     Subspace diagonalization in iterative solution of the eigenvalue problem:
     a serial algorithm will be used


     Parallelization info
     --------------------
     sticks:   dense  smooth     PW     G-vecs:    dense   smooth      PW
     Min         310     120     44                 5816     1470     308
     Max         311     121     45                 5817     1475     311
     Sum         621     241     89                11633     2945     619

     Using Slab Decomposition



     bravais-lattice index     =            0
     lattice parameter (alat)  =       5.1023  a.u.
     unit-cell volume          =     132.8275 (a.u.)^3
     number of atoms/cell      =            2
     number of atomic types    =            1
     number of electrons       =        16.00
     number of Kohn-Sham states=           12
     kinetic-energy cutoff     =      30.0000  Ry
     charge density cutoff     =     300.0000  Ry
     scf convergence threshold =      1.0E-07
     mixing beta               =       0.5000
     number of iterations used =            8  plain     mixing
     energy convergence thresh.=      1.0E-04
     force convergence thresh. =      1.0E-03
     press convergence thresh. =      5.0E-01
     Exchange-correlation=  SLA  PW   PBE  PBE
                           (   1   4   3   4   0   0   0)
     nstep                     =           50


     celldm(1)=   5.102261  celldm(2)=   0.000000  celldm(3)=   0.000000
     celldm(4)=   0.000000  celldm(5)=   0.000000  celldm(6)=   0.000000

     crystal axes: (cart. coord. in units of alat)
               a(1) = (   1.000000   0.000000   0.000000 )  
               a(2) = (   0.000000   1.000000   0.000000 )  
               a(3) = (   0.000000   0.000000   1.000000 )  

     reciprocal axes: (cart. coord. in units 2 pi/alat)
               b(1) = (  1.000000  0.000000  0.000000 )  
               b(2) = (  0.000000  1.000000  0.000000 )  
               b(3) = (  0.000000  0.000000  1.000000 )  


     PseudoPot. # 1 for Fe read from file:
     /home/bond/Software/QE/qe-7.4.1/pseudo/Fe.pbe-nd-rrkjus.UPF
     MD5 check sum: 398036227a04b607635f6f5e8dfd8242
     Pseudo is Ultrasoft + core correction, Zval =  8.0
     Generated by new atomic code, or converted to UPF format
     Using radial grid of  957 points,  6 beta functions with: 
                l(1) =   0
                l(2) =   0
                l(3) =   1
                l(4) =   1
                l(5) =   2
                l(6) =   2
     Q(r) pseudized with 0 coefficients 


     atomic species   valence    mass     pseudopotential
     Fe                8.00    55.84500     Fe( 1.00)

     Starting magnetic structure 
     atomic species   magnetization
     Fe              0.700

     48 Sym. Ops., with inversion, found



   Cartesian axes

     site n.     atom                  positions (alat units)
         1        Fe     tau(   1) = (   0.0000000   0.0000000   0.0000000  )
         2        Fe     tau(   2) = (   0.5000000   0.5000000   0.5000000  )

     number of k points=   120  Methfessel-Paxton smearing, width (Ry)=  0.0200

     Number of k-points >= 100: set verbosity='high' to print them.

     Dense  grid:    11633 G-vectors     FFT dimensions: (  30,  30,  30)

     Smooth grid:     2945 G-vectors     FFT dimensions: (  18,  18,  18)

     Estimated max dynamical RAM per process >      34.58 MB

     Estimated total dynamical RAM >      69.16 MB

     Check: negative core charge=   -0.000002
     Generating pointlists ...
     new r_m :   0.3572 (alat units)  1.8227 (a.u.) for type    1

     Initial potential from superposition of free atoms

     starting charge      15.9987, renormalised to      16.0000
     Starting wfcs are   12 randomized atomic wfcs

     total cpu time spent up to now is        1.8 secs

     Self-consistent Calculation

     iteration #  1     ecut=    30.00 Ry     beta= 0.50
     Davidson diagonalization with overlap
     ethr =  1.00E-02,  avg # of iterations =  3.6

     total cpu time spent up to now is        4.2 secs

     total energy              =    -111.36270927 Ry
     estimated scf accuracy    <       0.53425371 Ry

     total magnetization       =     5.68 Bohr mag/cell
     absolute magnetization    =     5.68 Bohr mag/cell

     iteration #  2     ecut=    30.00 Ry     beta= 0.50
     Davidson diagonalization with overlap
     ethr =  3.34E-03,  avg # of iterations =  1.8

     total cpu time spent up to now is        6.0 secs

     total energy              =    -111.52534227 Ry
     estimated scf accuracy    <       0.04807063 Ry

     total magnetization       =     5.28 Bohr mag/cell
     absolute magnetization    =     5.29 Bohr mag/cell

     iteration #  3     ecut=    30.00 Ry     beta= 0.50
     Davidson diagonalization with overlap
     ethr =  3.00E-04,  avg # of iterations =  1.6

     total cpu time spent up to now is        7.6 secs

     total energy              =    -111.56083263 Ry
     estimated scf accuracy    <       0.01819174 Ry

     total magnetization       =     4.92 Bohr mag/cell
     absolute magnetization    =     4.98 Bohr mag/cell

     iteration #  4     ecut=    30.00 Ry     beta= 0.50
     Davidson diagonalization with overlap
     ethr =  1.14E-04,  avg # of iterations =  1.7

     total cpu time spent up to now is        9.3 secs

     total energy              =    -111.57527867 Ry
     estimated scf accuracy    <       0.00289516 Ry

     total magnetization       =     4.25 Bohr mag/cell
     absolute magnetization    =     4.47 Bohr mag/cell

     iteration #  5     ecut=    30.00 Ry     beta= 0.50
     Davidson diagonalization with overlap
     ethr =  1.81E-05,  avg # of iterations =  2.1

     total cpu time spent up to now is       12.0 secs

     total energy              =    -111.57553118 Ry
     estimated scf accuracy    <       0.00114377 Ry

     total magnetization       =     4.25 Bohr mag/cell
     absolute magnetization    =     4.47 Bohr mag/cell

     iteration #  6     ecut=    30.00 Ry     beta= 0.50
     Davidson diagonalization with overlap
     ethr =  7.15E-06,  avg # of iterations =  1.4

     total cpu time spent up to now is       14.1 secs

     total energy              =    -111.57558493 Ry
     estimated scf accuracy    <       0.00111826 Ry

     total magnetization       =     4.25 Bohr mag/cell
     absolute magnetization    =     4.47 Bohr mag/cell

     iteration #  7     ecut=    30.00 Ry     beta= 0.50
     Davidson diagonalization with overlap
     ethr =  6.99E-06,  avg # of iterations =  1.1

     total cpu time spent up to now is       15.9 secs

     total energy              =    -111.57500495 Ry
     estimated scf accuracy    <       0.00141001 Ry

     total magnetization       =     4.25 Bohr mag/cell
     absolute magnetization    =     4.47 Bohr mag/cell

     iteration #  8     ecut=    30.00 Ry     beta= 0.50
     Davidson diagonalization with overlap
     ethr =  6.99E-06,  avg # of iterations =  2.4

     total cpu time spent up to now is       20.4 secs

     total energy              =    -111.57661841 Ry
     estimated scf accuracy    <       0.00466533 Ry

     total magnetization       =     4.20 Bohr mag/cell
     absolute magnetization    =     4.37 Bohr mag/cell

     iteration #  9     ecut=    30.00 Ry     beta= 0.50
     Davidson diagonalization with overlap
     ethr =  6.99E-06,  avg # of iterations =  2.3

     total cpu time spent up to now is       22.2 secs

     total energy              =    -111.57551295 Ry
     estimated scf accuracy    <       0.01551813 Ry

     total magnetization       =     4.14 Bohr mag/cell
     absolute magnetization    =     4.27 Bohr mag/cell

     iteration # 10     ecut=    30.00 Ry     beta= 0.50
     Davidson diagonalization with overlap
     ethr =  6.99E-06,  avg # of iterations =  2.6

     total cpu time spent up to now is       24.1 secs

     total energy              =    -111.57669386 Ry
     estimated scf accuracy    <       0.00143978 Ry

     total magnetization       =     4.11 Bohr mag/cell
     absolute magnetization    =     4.27 Bohr mag/cell

     iteration # 11     ecut=    30.00 Ry     beta= 0.50
     Davidson diagonalization with overlap
     ethr =  6.99E-06,  avg # of iterations =  1.0

     total cpu time spent up to now is       26.0 secs

     total energy              =    -111.57684375 Ry
     estimated scf accuracy    <       0.00311317 Ry

     total magnetization       =     4.13 Bohr mag/cell
     absolute magnetization    =     4.29 Bohr mag/cell

     iteration # 12     ecut=    30.00 Ry     beta= 0.50
     Davidson diagonalization with overlap
     ethr =  6.99E-06,  avg # of iterations =  1.0

     total cpu time spent up to now is       27.6 secs

     total energy              =    -111.57680217 Ry
     estimated scf accuracy    <       0.00265175 Ry

     total magnetization       =     4.14 Bohr mag/cell
     absolute magnetization    =     4.30 Bohr mag/cell

     iteration # 13     ecut=    30.00 Ry     beta= 0.50
     Davidson diagonalization with overlap
     ethr =  6.99E-06,  avg # of iterations =  1.0

     total cpu time spent up to now is       29.1 secs

     total energy              =    -111.57672233 Ry
     estimated scf accuracy    <       0.00187204 Ry

     total magnetization       =     4.14 Bohr mag/cell
     absolute magnetization    =     4.30 Bohr mag/cell

     iteration # 14     ecut=    30.00 Ry     beta= 0.50
     Davidson diagonalization with overlap
     ethr =  6.99E-06,  avg # of iterations =  1.0

     total cpu time spent up to now is       30.5 secs

     total energy              =    -111.57663530 Ry
     estimated scf accuracy    <       0.00064564 Ry

     total magnetization       =     4.14 Bohr mag/cell
     absolute magnetization    =     4.31 Bohr mag/cell

     iteration # 15     ecut=    30.00 Ry     beta= 0.50
     Davidson diagonalization with overlap
     ethr =  4.04E-06,  avg # of iterations =  1.6

     total cpu time spent up to now is       32.1 secs

     total energy              =    -111.57677937 Ry
     estimated scf accuracy    <       0.00002290 Ry

     total magnetization       =     4.15 Bohr mag/cell
     absolute magnetization    =     4.34 Bohr mag/cell

     iteration # 16     ecut=    30.00 Ry     beta= 0.50
     Davidson diagonalization with overlap
     ethr =  1.43E-07,  avg # of iterations =  2.9

     total cpu time spent up to now is       34.1 secs

     total energy              =    -111.57678528 Ry
     estimated scf accuracy    <       0.00000775 Ry

     total magnetization       =     4.15 Bohr mag/cell
     absolute magnetization    =     4.34 Bohr mag/cell

     iteration # 17     ecut=    30.00 Ry     beta= 0.50
     Davidson diagonalization with overlap
     ethr =  4.84E-08,  avg # of iterations =  1.7

     total cpu time spent up to now is       35.7 secs

     total energy              =    -111.57678720 Ry
     estimated scf accuracy    <       0.00000045 Ry

     total magnetization       =     4.15 Bohr mag/cell
     absolute magnetization    =     4.34 Bohr mag/cell

     iteration # 18     ecut=    30.00 Ry     beta= 0.50
     Davidson diagonalization with overlap
     ethr =  2.84E-09,  avg # of iterations =  7.0

     total cpu time spent up to now is       39.5 secs

     total energy              =    -111.57678816 Ry
     estimated scf accuracy    <       0.00000045 Ry

     total magnetization       =     4.15 Bohr mag/cell
     absolute magnetization    =     4.34 Bohr mag/cell

     iteration # 19     ecut=    30.00 Ry     beta= 0.50
     Davidson diagonalization with overlap
     ethr =  2.79E-09,  avg # of iterations =  1.2

     total cpu time spent up to now is       41.0 secs

     total energy              =    -111.57678818 Ry
     estimated scf accuracy    <       0.00000072 Ry

     total magnetization       =     4.15 Bohr mag/cell
     absolute magnetization    =     4.34 Bohr mag/cell

     iteration # 20     ecut=    30.00 Ry     beta= 0.50
     Davidson diagonalization with overlap
     ethr =  2.79E-09,  avg # of iterations =  1.5

     total cpu time spent up to now is       42.8 secs

     total energy              =    -111.57678821 Ry
     estimated scf accuracy    <       0.00000014 Ry

     total magnetization       =     4.15 Bohr mag/cell
     absolute magnetization    =     4.34 Bohr mag/cell

     iteration # 21     ecut=    30.00 Ry     beta= 0.50
     Davidson diagonalization with overlap
     ethr =  8.56E-10,  avg # of iterations =  2.2

     Magnetic moment per site  (integrated on atomic sphere of radius R)
     atom   1 (R=0.357)  charge=  6.3592  magn=  2.1043
     atom   2 (R=0.357)  charge=  6.3593  magn=  2.1040

     total cpu time spent up to now is       45.6 secs

     End of self-consistent calculation

     Number of k-points >= 100: set verbosity='high' to print the bands.

     the Fermi energy is    16.3685 ev

!    total energy              =    -111.57678827 Ry
     estimated scf accuracy    <       0.00000002 Ry
     smearing contrib. (-TS)   =       0.00000637 Ry
     internal energy E=F+TS    =    -111.57679464 Ry

     The total energy is F=E-TS. E is the sum of the following terms:
     one-electron contribution =      21.31762055 Ry
     hartree contribution      =      11.49055174 Ry
     xc contribution           =     -53.08780987 Ry
     ewald contribution        =     -91.29715706 Ry

     total magnetization       =     4.15 Bohr mag/cell
     absolute magnetization    =     4.33 Bohr mag/cell

     convergence has been achieved in  21 iterations

     Forces acting on atoms (cartesian axes, Ry/au):

     atom    1 type  1   force =     0.00000000    0.00000000    0.00000000
     atom    2 type  1   force =     0.00000000    0.00000000    0.00000000

     Total force =     0.000000     Total SCF correction =     0.000000


     Computing stress (Cartesian axis) and pressure

          total   stress  (Ry/bohr**3)                   (kbar)     P=      404.43
   0.00274927   0.00000000   0.00000000          404.43        0.00        0.00
   0.00000000   0.00274927   0.00000000            0.00      404.43        0.00
   0.00000000   0.00000000   0.00274927            0.00        0.00      404.43


     BFGS Geometry Optimization
     Energy error            =      6.7E-02 Ry
     Gradient error          =      0.0E+00 Ry/Bohr
     Cell gradient error     =      4.0E+02 kbar

     number of scf cycles    =   1
     number of bfgs steps    =   0

     enthalpy           new  =    -111.5767882727 Ry

     new trust radius        =       0.1584277179 bohr
     new conv_thr            =       0.0000001000 Ry

     new unit-cell volume =    162.14143 a.u.^3 (    24.02688 Ang^3 )
     density =      7.71909 g/cm^3

CELL_PARAMETERS (angstrom)
   2.885575649   0.000000000   0.000000000
   0.000000000   2.885575649   0.000000000
   0.000000000   0.000000000   2.885575649

ATOMIC_POSITIONS (angstrom)
Fe               0.0000000000        0.0000000000        0.0000000000
Fe               1.4427878245        1.4427878245        1.4427878245


     Message from routine punch:
     Nothing written, as per user request (disk_io='none')
     NEW-OLD atomic charge density approx. for the potential
     New effective cutoffs (rho, wfc):  261.56   26.26

     Check: negative core charge=   -0.000003
     Generating pointlists ...

     total cpu time spent up to now is       47.1 secs

     Self-consistent Calculation

     iteration #  1     ecut=    30.00 Ry     beta= 0.50
     Davidson diagonalization with overlap
     ethr =  1.00E-06,  avg # of iterations =  7.8

     total cpu time spent up to now is       51.8 secs

     total energy              =    -111.59868132 Ry
     estimated scf accuracy    <       0.00411906 Ry

     total magnetization       =     4.46 Bohr mag/cell
     absolute magnetization    =     4.69 Bohr mag/cell

     iteration #  2     ecut=    30.00 Ry     beta= 0.50
     Davidson diagonalization with overlap
     ethr =  2.57E-05,  avg # of iterations =  1.0

     total cpu time spent up to now is       53.3 secs

     total energy              =    -111.60003843 Ry
     estimated scf accuracy    <       0.00233315 Ry

     total magnetization       =     4.56 Bohr mag/cell
     absolute magnetization    =     4.81 Bohr mag/cell

     iteration #  3     ecut=    30.00 Ry     beta= 0.50
     Davidson diagonalization with overlap
     ethr =  1.46E-05,  avg # of iterations =  1.6

     total cpu time spent up to now is       55.4 secs

     total energy              =    -111.60003548 Ry
     estimated scf accuracy    <       0.00401444 Ry

     total magnetization       =     4.63 Bohr mag/cell
     absolute magnetization    =     4.89 Bohr mag/cell

     iteration #  4     ecut=    30.00 Ry     beta= 0.50
     Davidson diagonalization with overlap
     ethr =  1.46E-05,  avg # of iterations =  1.6

     total cpu time spent up to now is       57.0 secs

     total energy              =    -111.60062499 Ry
     estimated scf accuracy    <       0.01200647 Ry

     total magnetization       =     4.67 Bohr mag/cell
     absolute magnetization    =     4.94 Bohr mag/cell

     iteration #  5     ecut=    30.00 Ry     beta= 0.50
     Davidson diagonalization with overlap
     ethr =  1.46E-05,  avg # of iterations =  1.5

     total cpu time spent up to now is       58.5 secs

     total energy              =    -111.60109607 Ry
     estimated scf accuracy    <       0.00017196 Ry

     total magnetization       =     4.81 Bohr mag/cell
     absolute magnetization    =     5.11 Bohr mag/cell

     iteration #  6     ecut=    30.00 Ry     beta= 0.50
     Davidson diagonalization with overlap
     ethr =  1.07E-06,  avg # of iterations =  3.8

     total cpu time spent up to now is       60.9 secs

     total energy              =    -111.60225942 Ry
     estimated scf accuracy    <       0.00008943 Ry

     total magnetization       =     5.00 Bohr mag/cell
     absolute magnetization    =     5.34 Bohr mag/cell

     iteration #  7     ecut=    30.00 Ry     beta= 0.50
     Davidson diagonalization with overlap
     ethr =  5.59E-07,  avg # of iterations =  1.3

     total cpu time spent up to now is       62.3 secs

     total energy              =    -111.60224183 Ry
     estimated scf accuracy    <       0.00000813 Ry

     total magnetization       =     5.02 Bohr mag/cell
     absolute magnetization    =     5.36 Bohr mag/cell

     iteration #  8     ecut=    30.00 Ry     beta= 0.50
     Davidson diagonalization with overlap
     ethr =  5.08E-08,  avg # of iterations =  4.0

     total cpu time spent up to now is       64.7 secs

     total energy              =    -111.60228586 Ry
     estimated scf accuracy    <       0.00001018 Ry

     total magnetization       =     4.97 Bohr mag/cell
     absolute magnetization    =     5.30 Bohr mag/cell

     iteration #  9     ecut=    30.00 Ry     beta= 0.50
     Davidson diagonalization with overlap
     ethr =  5.08E-08,  avg # of iterations =  3.2

     total cpu time spent up to now is       66.8 secs

     total energy              =    -111.60232351 Ry
     estimated scf accuracy    <       0.00000117 Ry

     total magnetization       =     5.01 Bohr mag/cell
     absolute magnetization    =     5.34 Bohr mag/cell

     iteration # 10     ecut=    30.00 Ry     beta= 0.50
     Davidson diagonalization with overlap
     ethr =  7.30E-09,  avg # of iterations =  3.8

     total cpu time spent up to now is       68.9 secs

     total energy              =    -111.60232593 Ry
     estimated scf accuracy    <       0.00000038 Ry

     total magnetization       =     5.00 Bohr mag/cell
     absolute magnetization    =     5.33 Bohr mag/cell

     iteration # 11     ecut=    30.00 Ry     beta= 0.50
     Davidson diagonalization with overlap
     ethr =  2.38E-09,  avg # of iterations =  3.5

     Magnetic moment per site  (integrated on atomic sphere of radius R)
     atom   1 (R=0.357)  charge=  6.1533  magn=  2.5575
     atom   2 (R=0.357)  charge=  6.1534  magn=  2.5576

     total cpu time spent up to now is       71.0 secs

     End of self-consistent calculation

     Number of k-points >= 100: set verbosity='high' to print the bands.

     the Fermi energy is    12.6085 ev

!    total energy              =    -111.60232668 Ry
     estimated scf accuracy    <          9.4E-09 Ry
     smearing contrib. (-TS)   =       0.00020043 Ry
     internal energy E=F+TS    =    -111.60252710 Ry

     The total energy is F=E-TS. E is the sum of the following terms:
     one-electron contribution =      13.08876726 Ry
     hartree contribution      =      13.63143144 Ry
     xc contribution           =     -52.89702430 Ry
     ewald contribution        =     -85.42570150 Ry

     total magnetization       =     5.00 Bohr mag/cell
     absolute magnetization    =     5.34 Bohr mag/cell

     convergence has been achieved in  11 iterations

     Forces acting on atoms (cartesian axes, Ry/au):

     atom    1 type  1   force =     0.00000000    0.00000000    0.00000000
     atom    2 type  1   force =     0.00000000    0.00000000    0.00000000

     Total force =     0.000000     Total SCF correction =     0.000000


     Computing stress (Cartesian axis) and pressure

          total   stress  (Ry/bohr**3)                   (kbar)     P=      -38.42
  -0.00026116   0.00000000   0.00000000          -38.42        0.00        0.00
   0.00000000  -0.00026116   0.00000000            0.00      -38.42        0.00
   0.00000000   0.00000000  -0.00026116            0.00        0.00      -38.42

     Energy error            =      2.6E-02 Ry
     Gradient error          =      0.0E+00 Ry/Bohr
     Cell gradient error     =      3.8E+01 kbar

     number of scf cycles    =   2
     number of bfgs steps    =   1

     enthalpy           old  =    -111.5767882727 Ry
     enthalpy           new  =    -111.6023266794 Ry

     CASE: enthalpy          _new < enthalpy          _old

     new trust radius        =       0.0160310702 bohr
     new conv_thr            =       0.0000000010 Ry

     new unit-cell volume =    159.09869 a.u.^3 (    23.57599 Ang^3 )
     density =      7.86671 g/cm^3

CELL_PARAMETERS (angstrom)
   2.867411377   0.000000000   0.000000000
   0.000000000   2.867411377   0.000000000
   0.000000000   0.000000000   2.867411377

ATOMIC_POSITIONS (angstrom)
Fe               0.0000000000        0.0000000000        0.0000000000
Fe               1.4337056886        1.4337056886        1.4337056886


     Message from routine punch:
     Nothing written, as per user request (disk_io='none')
     NEW-OLD atomic charge density approx. for the potential
     New effective cutoffs (rho, wfc):  264.88   26.60

     Check: negative core charge=   -0.000003
     Generating pointlists ...

     total cpu time spent up to now is       71.9 secs

     Self-consistent Calculation

     iteration #  1     ecut=    30.00 Ry     beta= 0.50
     Davidson diagonalization with overlap
     ethr =  1.00E-06,  avg # of iterations =  4.0

     total cpu time spent up to now is       74.7 secs

     total energy              =    -111.60283337 Ry
     estimated scf accuracy    <       0.00008239 Ry

     total magnetization       =     4.95 Bohr mag/cell
     absolute magnetization    =     5.28 Bohr mag/cell

     iteration #  2     ecut=    30.00 Ry     beta= 0.50
     Davidson diagonalization with overlap
     ethr =  5.15E-07,  avg # of iterations =  1.1

     total cpu time spent up to now is       76.2 secs

     total energy              =    -111.60285514 Ry
     estimated scf accuracy    <       0.00006656 Ry

     total magnetization       =     4.93 Bohr mag/cell
     absolute magnetization    =     5.26 Bohr mag/cell

     iteration #  3     ecut=    30.00 Ry     beta= 0.50
     Davidson diagonalization with overlap
     ethr =  4.16E-07,  avg # of iterations =  1.5

     total cpu time spent up to now is       77.7 secs

     total energy              =    -111.60286567 Ry
     estimated scf accuracy    <       0.00035518 Ry

     total magnetization       =     4.92 Bohr mag/cell
     absolute magnetization    =     5.25 Bohr mag/cell

     iteration #  4     ecut=    30.00 Ry     beta= 0.50
     Davidson diagonalization with overlap
     ethr =  4.16E-07,  avg # of iterations =  1.7

     total cpu time spent up to now is       79.3 secs

     total energy              =    -111.60291773 Ry
     estimated scf accuracy    <       0.00001423 Ry

     total magnetization       =     4.89 Bohr mag/cell
     absolute magnetization    =     5.21 Bohr mag/cell

     iteration #  5     ecut=    30.00 Ry     beta= 0.50
     Davidson diagonalization with overlap
     ethr =  8.90E-08,  avg # of iterations =  2.2

     total cpu time spent up to now is       81.5 secs

     total energy              =    -111.60290959 Ry
     estimated scf accuracy    <       0.00000302 Ry

     total magnetization       =     4.87 Bohr mag/cell
     absolute magnetization    =     5.19 Bohr mag/cell

     iteration #  6     ecut=    30.00 Ry     beta= 0.50
     Davidson diagonalization with overlap
     ethr =  1.88E-08,  avg # of iterations =  4.1

     total cpu time spent up to now is       83.9 secs

     total energy              =    -111.60293680 Ry
     estimated scf accuracy    <       0.00000219 Ry

     total magnetization       =     4.84 Bohr mag/cell
     absolute magnetization    =     5.16 Bohr mag/cell

     iteration #  7     ecut=    30.00 Ry     beta= 0.50
     Davidson diagonalization with overlap
     ethr =  1.37E-08,  avg # of iterations =  1.5

     total cpu time spent up to now is       85.6 secs

     total energy              =    -111.60293776 Ry
     estimated scf accuracy    <       0.00000003 Ry

     total magnetization       =     4.84 Bohr mag/cell
     absolute magnetization    =     5.16 Bohr mag/cell

     iteration #  8     ecut=    30.00 Ry     beta= 0.50
     Davidson diagonalization with overlap
     ethr =  1.60E-10,  avg # of iterations =  4.9

     total cpu time spent up to now is       88.2 secs

     total energy              =    -111.60293790 Ry
     estimated scf accuracy    <       0.00000001 Ry

     total magnetization       =     4.84 Bohr mag/cell
     absolute magnetization    =     5.16 Bohr mag/cell

     iteration #  9     ecut=    30.00 Ry     beta= 0.50
     Davidson diagonalization with overlap
     ethr =  6.98E-11,  avg # of iterations =  2.3

     total cpu time spent up to now is       89.9 secs

     total energy              =    -111.60293792 Ry
     estimated scf accuracy    <          1.1E-09 Ry

     total magnetization       =     4.84 Bohr mag/cell
     absolute magnetization    =     5.16 Bohr mag/cell

     iteration # 10     ecut=    30.00 Ry     beta= 0.50
     Davidson diagonalization with overlap
     ethr =  6.62E-12,  avg # of iterations =  4.7

     Magnetic moment per site  (integrated on atomic sphere of radius R)
     atom   1 (R=0.357)  charge=  6.1686  magn=  2.4765
     atom   2 (R=0.357)  charge=  6.1686  magn=  2.4765

     total cpu time spent up to now is       92.4 secs

     End of self-consistent calculation

     Number of k-points >= 100: set verbosity='high' to print the bands.

     the Fermi energy is    12.8974 ev

!    total energy              =    -111.60293793 Ry
     estimated scf accuracy    <          5.2E-11 Ry
     smearing contrib. (-TS)   =       0.00012148 Ry
     internal energy E=F+TS    =    -111.60305941 Ry

     The total energy is F=E-TS. E is the sum of the following terms:
     one-electron contribution =      13.84747490 Ry
     hartree contribution      =      13.41531538 Ry
     xc contribution           =     -52.89899959 Ry
     ewald contribution        =     -85.96685010 Ry

     total magnetization       =     4.84 Bohr mag/cell
     absolute magnetization    =     5.16 Bohr mag/cell

     convergence has been achieved in  10 iterations

     Forces acting on atoms (cartesian axes, Ry/au):

     atom    1 type  1   force =     0.00000000    0.00000000    0.00000000
     atom    2 type  1   force =     0.00000000    0.00000000    0.00000000

     Total force =     0.000000     Total SCF correction =     0.000000


     Computing stress (Cartesian axis) and pressure

          total   stress  (Ry/bohr**3)                   (kbar)     P=      -21.99
  -0.00014947   0.00000000   0.00000000          -21.99        0.00        0.00
   0.00000000  -0.00014947   0.00000000            0.00      -21.99        0.00
   0.00000000   0.00000000  -0.00014947            0.00        0.00      -21.99

     Energy error            =      6.1E-04 Ry
     Gradient error          =      0.0E+00 Ry/Bohr
     Cell gradient error     =      2.2E+01 kbar

     number of scf cycles    =   3
     number of bfgs steps    =   2

     enthalpy           old  =    -111.6023266794 Ry
     enthalpy           new  =    -111.6029379330 Ry

     CASE: enthalpy          _new < enthalpy          _old

     new trust radius        =       0.0207693084 bohr
     new conv_thr            =       0.0000000010 Ry

     new unit-cell volume =    155.20137 a.u.^3 (    22.99847 Ang^3 )
     density =      8.06426 g/cm^3

CELL_PARAMETERS (angstrom)
   2.843803946   0.000000000   0.000000000
   0.000000000   2.843803946   0.000000000
   0.000000000   0.000000000   2.843803946

ATOMIC_POSITIONS (angstrom)
Fe               0.0000000000        0.0000000000        0.0000000000
Fe               1.4219019729        1.4219019729        1.4219019729


     Message from routine punch:
     Nothing written, as per user request (disk_io='none')
     NEW-OLD atomic charge density approx. for the potential
     New effective cutoffs (rho, wfc):  269.30   27.04

     Check: negative core charge=   -0.000004
     Generating pointlists ...

     total cpu time spent up to now is       93.4 secs

     Self-consistent Calculation

     iteration #  1     ecut=    30.00 Ry     beta= 0.50
     Davidson diagonalization with overlap
     ethr =  1.00E-06,  avg # of iterations =  4.4

     total cpu time spent up to now is       96.5 secs

     total energy              =    -111.60303201 Ry
     estimated scf accuracy    <       0.00015061 Ry

     total magnetization       =     4.77 Bohr mag/cell
     absolute magnetization    =     5.08 Bohr mag/cell

     iteration #  2     ecut=    30.00 Ry     beta= 0.50
     Davidson diagonalization with overlap
     ethr =  9.41E-07,  avg # of iterations =  1.0

     total cpu time spent up to now is       98.0 secs

     total energy              =    -111.60308943 Ry
     estimated scf accuracy    <       0.00009304 Ry

     total magnetization       =     4.74 Bohr mag/cell
     absolute magnetization    =     5.05 Bohr mag/cell

     iteration #  3     ecut=    30.00 Ry     beta= 0.50
     Davidson diagonalization with overlap
     ethr =  5.81E-07,  avg # of iterations =  2.3

     total cpu time spent up to now is       99.8 secs

     total energy              =    -111.60316709 Ry
     estimated scf accuracy    <       0.00018183 Ry

     total magnetization       =     4.69 Bohr mag/cell
     absolute magnetization    =     4.99 Bohr mag/cell

     iteration #  4     ecut=    30.00 Ry     beta= 0.50
     Davidson diagonalization with overlap
     ethr =  5.81E-07,  avg # of iterations =  1.2

     total cpu time spent up to now is      101.4 secs

     total energy              =    -111.60319194 Ry
     estimated scf accuracy    <       0.00015692 Ry

     total magnetization       =     4.68 Bohr mag/cell
     absolute magnetization    =     4.98 Bohr mag/cell

     iteration #  5     ecut=    30.00 Ry     beta= 0.50
     Davidson diagonalization with overlap
     ethr =  5.81E-07,  avg # of iterations =  1.0

     total cpu time spent up to now is      102.9 secs

     total energy              =    -111.60319987 Ry
     estimated scf accuracy    <       0.00000408 Ry

     total magnetization       =     4.67 Bohr mag/cell
     absolute magnetization    =     4.97 Bohr mag/cell

     iteration #  6     ecut=    30.00 Ry     beta= 0.50
     Davidson diagonalization with overlap
     ethr =  2.55E-08,  avg # of iterations =  3.6

     total cpu time spent up to now is      105.1 secs

     total energy              =    -111.60321588 Ry
     estimated scf accuracy    <       0.00000159 Ry

     total magnetization       =     4.64 Bohr mag/cell
     absolute magnetization    =     4.94 Bohr mag/cell

     iteration #  7     ecut=    30.00 Ry     beta= 0.50
     Davidson diagonalization with overlap
     ethr =  9.96E-09,  avg # of iterations =  2.1

     total cpu time spent up to now is      106.9 secs

     total energy              =    -111.60321639 Ry
     estimated scf accuracy    <       0.00000013 Ry

     total magnetization       =     4.64 Bohr mag/cell
     absolute magnetization    =     4.94 Bohr mag/cell

     iteration #  8     ecut=    30.00 Ry     beta= 0.50
     Davidson diagonalization with overlap
     ethr =  7.94E-10,  avg # of iterations =  4.6

     total cpu time spent up to now is      109.3 secs

     total energy              =    -111.60321655 Ry
     estimated scf accuracy    <       0.00000017 Ry

     total magnetization       =     4.65 Bohr mag/cell
     absolute magnetization    =     4.94 Bohr mag/cell

     iteration #  9     ecut=    30.00 Ry     beta= 0.50
     Davidson diagonalization with overlap
     ethr =  7.94E-10,  avg # of iterations =  1.6

     total cpu time spent up to now is      110.9 secs

     total energy              =    -111.60321660 Ry
     estimated scf accuracy    <       0.00000001 Ry

     total magnetization       =     4.64 Bohr mag/cell
     absolute magnetization    =     4.94 Bohr mag/cell

     iteration # 10     ecut=    30.00 Ry     beta= 0.50
     Davidson diagonalization with overlap
     ethr =  6.47E-11,  avg # of iterations =  4.1

     Magnetic moment per site  (integrated on atomic sphere of radius R)
     atom   1 (R=0.357)  charge=  6.1893  magn=  2.3738
     atom   2 (R=0.357)  charge=  6.1893  magn=  2.3737

     total cpu time spent up to now is      113.2 secs

     End of self-consistent calculation

     Number of k-points >= 100: set verbosity='high' to print the bands.

     the Fermi energy is    13.3108 ev

!    total energy              =    -111.60321662 Ry
     estimated scf accuracy    <          1.7E-10 Ry
     smearing contrib. (-TS)   =       0.00022098 Ry
     internal energy E=F+TS    =    -111.60343760 Ry

     The total energy is F=E-TS. E is the sum of the following terms:
     one-electron contribution =      14.84928594 Ry
     hartree contribution      =      13.13108361 Ry
     xc contribution           =     -52.90331554 Ry
     ewald contribution        =     -86.68049160 Ry

     total magnetization       =     4.64 Bohr mag/cell
     absolute magnetization    =     4.94 Bohr mag/cell

     convergence has been achieved in  10 iterations

     Forces acting on atoms (cartesian axes, Ry/au):

     atom    1 type  1   force =     0.00000000    0.00000000    0.00000000
     atom    2 type  1   force =     0.00000000    0.00000000    0.00000000

     Total force =     0.000000     Total SCF correction =     0.000000


     Computing stress (Cartesian axis) and pressure

          total   stress  (Ry/bohr**3)                   (kbar)     P=        3.71
   0.00002521   0.00000000   0.00000000            3.71        0.00        0.00
   0.00000000   0.00002521   0.00000000            0.00        3.71        0.00
   0.00000000   0.00000000   0.00002521            0.00        0.00        3.71

     Energy error            =      2.8E-04 Ry
     Gradient error          =      0.0E+00 Ry/Bohr
     Cell gradient error     =      3.7E+00 kbar

     number of scf cycles    =   4
     number of bfgs steps    =   3

     enthalpy           old  =    -111.6029379330 Ry
     enthalpy           new  =    -111.6032166169 Ry

     CASE: enthalpy          _new < enthalpy          _old

     new trust radius        =       0.0029434515 bohr
     new conv_thr            =       0.0000000010 Ry

     new unit-cell volume =    155.75207 a.u.^3 (    23.08007 Ang^3 )
     density =      8.03575 g/cm^3

CELL_PARAMETERS (angstrom)
   2.847163478   0.000000000   0.000000000
   0.000000000   2.847163478   0.000000000
   0.000000000   0.000000000   2.847163478

ATOMIC_POSITIONS (angstrom)
Fe               0.0000000000        0.0000000000        0.0000000000
Fe               1.4235817389        1.4235817389        1.4235817389


     Message from routine punch:
     Nothing written, as per user request (disk_io='none')
     NEW-OLD atomic charge density approx. for the potential
     New effective cutoffs (rho, wfc):  268.66   26.98

     Check: negative core charge=   -0.000004
     Generating pointlists ...

     total cpu time spent up to now is      114.1 secs

     Self-consistent Calculation

     iteration #  1     ecut=    30.00 Ry     beta= 0.50
     Davidson diagonalization with overlap
     ethr =  1.00E-06,  avg # of iterations =  2.5

     Threshold (ethr) on eigenvalues was too large:
     Diagonalizing with lowered threshold

     Davidson diagonalization with overlap
     ethr =  1.55E-08,  avg # of iterations =  2.2

     total cpu time spent up to now is      117.9 secs

     total energy              =    -111.60321917 Ry
     estimated scf accuracy    <       0.00000235 Ry

     total magnetization       =     4.65 Bohr mag/cell
     absolute magnetization    =     4.95 Bohr mag/cell

     iteration #  2     ecut=    30.00 Ry     beta= 0.50
     Davidson diagonalization with overlap
     ethr =  1.47E-08,  avg # of iterations =  1.1

     total cpu time spent up to now is      119.4 secs

     total energy              =    -111.60321976 Ry
     estimated scf accuracy    <       0.00000178 Ry

     total magnetization       =     4.66 Bohr mag/cell
     absolute magnetization    =     4.95 Bohr mag/cell

     iteration #  3     ecut=    30.00 Ry     beta= 0.50
     Davidson diagonalization with overlap
     ethr =  1.11E-08,  avg # of iterations =  1.7

     total cpu time spent up to now is      121.0 secs

     total energy              =    -111.60321981 Ry
     estimated scf accuracy    <       0.00001322 Ry

     total magnetization       =     4.66 Bohr mag/cell
     absolute magnetization    =     4.96 Bohr mag/cell

     iteration #  4     ecut=    30.00 Ry     beta= 0.50
     Davidson diagonalization with overlap
     ethr =  1.11E-08,  avg # of iterations =  1.7

     total cpu time spent up to now is      122.6 secs

     total energy              =    -111.60322126 Ry
     estimated scf accuracy    <       0.00000040 Ry

     total magnetization       =     4.66 Bohr mag/cell
     absolute magnetization    =     4.96 Bohr mag/cell

     iteration #  5     ecut=    30.00 Ry     beta= 0.50
     Davidson diagonalization with overlap
     ethr =  2.48E-09,  avg # of iterations =  1.9

     total cpu time spent up to now is      124.2 secs

     total energy              =    -111.60322128 Ry
     estimated scf accuracy    <       0.00000007 Ry

     total magnetization       =     4.66 Bohr mag/cell
     absolute magnetization    =     4.96 Bohr mag/cell

     iteration #  6     ecut=    30.00 Ry     beta= 0.50
     Davidson diagonalization with overlap
     ethr =  4.26E-10,  avg # of iterations =  3.8

     total cpu time spent up to now is      126.4 secs

     total energy              =    -111.60322161 Ry
     estimated scf accuracy    <       0.00000005 Ry

     total magnetization       =     4.67 Bohr mag/cell
     absolute magnetization    =     4.97 Bohr mag/cell

     iteration #  7     ecut=    30.00 Ry     beta= 0.50
     Davidson diagonalization with overlap
     ethr =  3.39E-10,  avg # of iterations =  1.4

     total cpu time spent up to now is      128.0 secs

     total energy              =    -111.60322162 Ry
     estimated scf accuracy    <          1.1E-09 Ry

     total magnetization       =     4.67 Bohr mag/cell
     absolute magnetization    =     4.97 Bohr mag/cell

     iteration #  8     ecut=    30.00 Ry     beta= 0.50
     Davidson diagonalization with overlap
     ethr =  6.63E-12,  avg # of iterations =  5.0

     total cpu time spent up to now is      130.6 secs

     total energy              =    -111.60322162 Ry
     estimated scf accuracy    <          3.2E-09 Ry

     total magnetization       =     4.67 Bohr mag/cell
     absolute magnetization    =     4.97 Bohr mag/cell

     iteration #  9     ecut=    30.00 Ry     beta= 0.50
     Davidson diagonalization with overlap
     ethr =  6.63E-12,  avg # of iterations =  1.6

     Magnetic moment per site  (integrated on atomic sphere of radius R)
     atom   1 (R=0.357)  charge=  6.1862  magn=  2.3854
     atom   2 (R=0.357)  charge=  6.1862  magn=  2.3854

     total cpu time spent up to now is      132.3 secs

     End of self-consistent calculation

     Number of k-points >= 100: set verbosity='high' to print the bands.

     the Fermi energy is    13.2491 ev

!    total energy              =    -111.60322162 Ry
     estimated scf accuracy    <          5.1E-10 Ry
     smearing contrib. (-TS)   =       0.00020229 Ry
     internal energy E=F+TS    =    -111.60342391 Ry

     The total energy is F=E-TS. E is the sum of the following terms:
     one-electron contribution =      14.70547811 Ry
     hartree contribution      =      13.17097019 Ry
     xc contribution           =     -52.90165991 Ry
     ewald contribution        =     -86.57821231 Ry

     total magnetization       =     4.67 Bohr mag/cell
     absolute magnetization    =     4.97 Bohr mag/cell

     convergence has been achieved in   9 iterations

     Forces acting on atoms (cartesian axes, Ry/au):

     atom    1 type  1   force =     0.00000000    0.00000000    0.00000000
     atom    2 type  1   force =     0.00000000    0.00000000    0.00000000

     Total force =     0.000000     Total SCF correction =     0.000000


     Computing stress (Cartesian axis) and pressure

          total   stress  (Ry/bohr**3)                   (kbar)     P=       -1.32
  -0.00000896   0.00000000   0.00000000           -1.32        0.00        0.00
   0.00000000  -0.00000896   0.00000000            0.00       -1.32        0.00
   0.00000000   0.00000000  -0.00000896            0.00        0.00       -1.32

     Energy error            =      5.0E-06 Ry
     Gradient error          =      0.0E+00 Ry/Bohr
     Cell gradient error     =      1.3E+00 kbar

     number of scf cycles    =   5
     number of bfgs steps    =   4

     enthalpy           old  =    -111.6032166169 Ry
     enthalpy           new  =    -111.6032216212 Ry

     CASE: enthalpy          _new < enthalpy          _old

     new trust radius        =       0.0007736279 bohr
     new conv_thr            =       0.0000000010 Ry

     new unit-cell volume =    155.60729 a.u.^3 (    23.05862 Ang^3 )
     density =      8.04322 g/cm^3

CELL_PARAMETERS (angstrom)
   2.846281012   0.000000000   0.000000000
   0.000000000   2.846281012   0.000000000
   0.000000000   0.000000000   2.846281012

ATOMIC_POSITIONS (angstrom)
Fe               0.0000000000        0.0000000000        0.0000000000
Fe               1.4231405062        1.4231405062        1.4231405062


     Message from routine punch:
     Nothing written, as per user request (disk_io='none')
     NEW-OLD atomic charge density approx. for the potential
     New effective cutoffs (rho, wfc):  268.83   26.99

     Check: negative core charge=   -0.000004
     Generating pointlists ...

     total cpu time spent up to now is      133.4 secs

     Self-consistent Calculation

     iteration #  1     ecut=    30.00 Ry     beta= 0.50
     Davidson diagonalization with overlap
     ethr =  1.00E-06,  avg # of iterations =  2.0

     Threshold (ethr) on eigenvalues was too large:
     Diagonalizing with lowered threshold

     Davidson diagonalization with overlap
     ethr =  1.15E-09,  avg # of iterations =  2.4

     total cpu time spent up to now is      137.2 secs

     total energy              =    -111.60322182 Ry
     estimated scf accuracy    <       0.00000017 Ry

     total magnetization       =     4.66 Bohr mag/cell
     absolute magnetization    =     4.96 Bohr mag/cell

     iteration #  2     ecut=    30.00 Ry     beta= 0.50
     Davidson diagonalization with overlap
     ethr =  1.04E-09,  avg # of iterations =  1.1

     total cpu time spent up to now is      138.6 secs

     total energy              =    -111.60322187 Ry
     estimated scf accuracy    <       0.00000012 Ry

     total magnetization       =     4.66 Bohr mag/cell
     absolute magnetization    =     4.96 Bohr mag/cell

     iteration #  3     ecut=    30.00 Ry     beta= 0.50
     Davidson diagonalization with overlap
     ethr =  7.72E-10,  avg # of iterations =  1.6

     total cpu time spent up to now is      140.1 secs

     total energy              =    -111.60322188 Ry
     estimated scf accuracy    <       0.00000066 Ry

     total magnetization       =     4.66 Bohr mag/cell
     absolute magnetization    =     4.96 Bohr mag/cell

     iteration #  4     ecut=    30.00 Ry     beta= 0.50
     Davidson diagonalization with overlap
     ethr =  7.72E-10,  avg # of iterations =  1.7

     total cpu time spent up to now is      141.7 secs

     total energy              =    -111.60322195 Ry
     estimated scf accuracy    <       0.00000008 Ry

     total magnetization       =     4.66 Bohr mag/cell
     absolute magnetization    =     4.96 Bohr mag/cell

     iteration #  5     ecut=    30.00 Ry     beta= 0.50
     Davidson diagonalization with overlap
     ethr =  4.88E-10,  avg # of iterations =  1.7

     total cpu time spent up to now is      143.3 secs

     total energy              =    -111.60322199 Ry
     estimated scf accuracy    <          4.9E-09 Ry

     total magnetization       =     4.66 Bohr mag/cell
     absolute magnetization    =     4.96 Bohr mag/cell

     iteration #  6     ecut=    30.00 Ry     beta= 0.50
     Davidson diagonalization with overlap
     ethr =  3.08E-11,  avg # of iterations =  3.5

     total cpu time spent up to now is      145.5 secs

     total energy              =    -111.60322200 Ry
     estimated scf accuracy    <          5.5E-09 Ry

     total magnetization       =     4.66 Bohr mag/cell
     absolute magnetization    =     4.96 Bohr mag/cell

     iteration #  7     ecut=    30.00 Ry     beta= 0.50
     Davidson diagonalization with overlap
     ethr =  3.08E-11,  avg # of iterations =  1.0

     Magnetic moment per site  (integrated on atomic sphere of radius R)
     atom   1 (R=0.357)  charge=  6.1870  magn=  2.3823
     atom   2 (R=0.357)  charge=  6.1870  magn=  2.3823

     total cpu time spent up to now is      146.9 secs

     End of self-consistent calculation

     Number of k-points >= 100: set verbosity='high' to print the bands.

     the Fermi energy is    13.2652 ev

!    total energy              =    -111.60322200 Ry
     estimated scf accuracy    <          4.4E-11 Ry
     smearing contrib. (-TS)   =       0.00020734 Ry
     internal energy E=F+TS    =    -111.60342934 Ry

     The total energy is F=E-TS. E is the sum of the following terms:
     one-electron contribution =      14.74318008 Ry
     hartree contribution      =      13.16054047 Ry
     xc contribution           =     -52.90209474 Ry
     ewald contribution        =     -86.60505515 Ry

     total magnetization       =     4.66 Bohr mag/cell
     absolute magnetization    =     4.96 Bohr mag/cell

     convergence has been achieved in   7 iterations

     Forces acting on atoms (cartesian axes, Ry/au):

     atom    1 type  1   force =     0.00000000    0.00000000    0.00000000
     atom    2 type  1   force =     0.00000000    0.00000000    0.00000000

     Total force =     0.000000     Total SCF correction =     0.000000


     Computing stress (Cartesian axis) and pressure

          total   stress  (Ry/bohr**3)                   (kbar)     P=        0.15
   0.00000104   0.00000000   0.00000000            0.15        0.00        0.00
   0.00000000   0.00000104   0.00000000            0.00        0.15        0.00
   0.00000000   0.00000000   0.00000104            0.00        0.00        0.15

     Energy error            =      3.8E-07 Ry
     Gradient error          =      0.0E+00 Ry/Bohr
     Cell gradient error     =      1.5E-01 kbar

     bfgs converged in   6 scf cycles and   5 bfgs steps
     (criteria: energy <  1.0E-04 Ry, force <  1.0E-03 Ry/Bohr, cell <  5.0E-01 kbar)

     End of BFGS Geometry Optimization

     Final enthalpy           =    -111.6032220041 Ry

     File /home/bond/Work/Lab4/1C/Fe_bcc_mag_ferro/pwscf.bfgs deleted, as requested
Begin final coordinates
     new unit-cell volume =    155.60729 a.u.^3 (    23.05862 Ang^3 )
     density =      8.04322 g/cm^3

CELL_PARAMETERS (angstrom)
   2.846281012   0.000000000   0.000000000
   0.000000000   2.846281012   0.000000000
   0.000000000   0.000000000   2.846281012

ATOMIC_POSITIONS (angstrom)
Fe               0.0000000000        0.0000000000        0.0000000000
Fe               1.4231405062        1.4231405062        1.4231405062
End final coordinates


     Message from routine punch:
     Nothing written, as per user request (disk_io='none')

     Final scf calculation at the relaxed structure.
     The G-vectors are recalculated for the final unit cell
     Results may differ from those at the preceding step.

     Parallelization info
     --------------------
     sticks:   dense  smooth     PW     G-vecs:    dense   smooth      PW
     Min         340     138     48                 6806     1702     368
     Max         341     139     49                 6807     1705     371
     Sum         681     277     97                13613     3407     739

     Using Slab Decomposition



     bravais-lattice index     =            0
     lattice parameter (alat)  =       5.1023  a.u.
     unit-cell volume          =     155.6073 (a.u.)^3
     number of atoms/cell      =            2
     number of atomic types    =            1
     number of electrons       =        16.00
     number of Kohn-Sham states=           12
     kinetic-energy cutoff     =      30.0000  Ry
     charge density cutoff     =     300.0000  Ry
     scf convergence threshold =      1.0E-09
     mixing beta               =       0.5000
     number of iterations used =            8  plain     mixing
     press convergence thresh. =      5.0E-01
     Exchange-correlation=  SLA  PW   PBE  PBE
                           (   1   4   3   4   0   0   0)

     celldm(1)=   5.102261  celldm(2)=   0.000000  celldm(3)=   0.000000
     celldm(4)=   0.000000  celldm(5)=   0.000000  celldm(6)=   0.000000

     crystal axes: (cart. coord. in units of alat)
               a(1) = (   1.054178   0.000000   0.000000 )  
               a(2) = (   0.000000   1.054178   0.000000 )  
               a(3) = (   0.000000   0.000000   1.054178 )  

     reciprocal axes: (cart. coord. in units 2 pi/alat)
               b(1) = (  0.948606  0.000000  0.000000 )  
               b(2) = (  0.000000  0.948606  0.000000 )  
               b(3) = (  0.000000  0.000000  0.948606 )  


     PseudoPot. # 1 for Fe read from file:
     /home/bond/Software/QE/qe-7.4.1/pseudo/Fe.pbe-nd-rrkjus.UPF
     MD5 check sum: 398036227a04b607635f6f5e8dfd8242
     Pseudo is Ultrasoft + core correction, Zval =  8.0
     Generated by new atomic code, or converted to UPF format
     Using radial grid of  957 points,  6 beta functions with: 
                l(1) =   0
                l(2) =   0
                l(3) =   1
                l(4) =   1
                l(5) =   2
                l(6) =   2
     Q(r) pseudized with 0 coefficients 


     atomic species   valence    mass     pseudopotential
     Fe                8.00    55.84500     Fe( 1.00)

     Starting magnetic structure 
     atomic species   magnetization
     Fe              0.385

     48 Sym. Ops., with inversion, found



   Cartesian axes

     site n.     atom                  positions (alat units)
         1        Fe     tau(   1) = (   0.0000000   0.0000000   0.0000000  )
         2        Fe     tau(   2) = (   0.5270891   0.5270891   0.5270891  )

     number of k points=   120  Methfessel-Paxton smearing, width (Ry)=  0.0200

     Number of k-points >= 100: set verbosity='high' to print them.

     Dense  grid:    13613 G-vectors     FFT dimensions: (  30,  30,  30)

     Smooth grid:     3407 G-vectors     FFT dimensions: (  20,  20,  20)

     Estimated max dynamical RAM per process >      39.82 MB

     Estimated total dynamical RAM >      79.63 MB

     Check: negative core charge=   -0.000007
     Generating pointlists ...

     Initial potential from superposition of free atoms

     starting charge      15.9987, renormalised to      16.0000
     Starting wfcs are   12 randomized atomic wfcs

     total cpu time spent up to now is      148.5 secs

     Self-consistent Calculation

     iteration #  1     ecut=    30.00 Ry     beta= 0.50
     Davidson diagonalization with overlap
     c_bands:  1 eigenvalues not converged
     c_bands:  1 eigenvalues not converged
     c_bands:  1 eigenvalues not converged
     c_bands:  1 eigenvalues not converged
     c_bands:  1 eigenvalues not converged
     c_bands:  1 eigenvalues not converged
     c_bands:  1 eigenvalues not converged
     c_bands:  1 eigenvalues not converged
     c_bands:  1 eigenvalues not converged
     c_bands:  1 eigenvalues not converged
     c_bands:  1 eigenvalues not converged
     c_bands:  1 eigenvalues not converged
     c_bands:  1 eigenvalues not converged
     c_bands:  1 eigenvalues not converged
     c_bands:  1 eigenvalues not converged
     c_bands:  1 eigenvalues not converged
     c_bands:  1 eigenvalues not converged
     c_bands:  1 eigenvalues not converged
     c_bands:  1 eigenvalues not converged
     c_bands:  2 eigenvalues not converged
     c_bands:  1 eigenvalues not converged
     c_bands:  2 eigenvalues not converged
     c_bands:  2 eigenvalues not converged
     c_bands:  1 eigenvalues not converged
     c_bands:  1 eigenvalues not converged
     c_bands:  1 eigenvalues not converged
     c_bands:  1 eigenvalues not converged
     c_bands:  1 eigenvalues not converged
     c_bands:  1 eigenvalues not converged
     c_bands:  1 eigenvalues not converged
     c_bands:  1 eigenvalues not converged
     c_bands:  1 eigenvalues not converged
     c_bands:  1 eigenvalues not converged
     c_bands:  1 eigenvalues not converged
     c_bands:  1 eigenvalues not converged
     c_bands:  1 eigenvalues not converged
     c_bands:  1 eigenvalues not converged
     c_bands:  1 eigenvalues not converged
     c_bands:  1 eigenvalues not converged
     c_bands:  1 eigenvalues not converged
     c_bands:  1 eigenvalues not converged
     c_bands:  1 eigenvalues not converged
     c_bands:  1 eigenvalues not converged
     c_bands:  1 eigenvalues not converged
     c_bands:  2 eigenvalues not converged
     c_bands:  1 eigenvalues not converged
     c_bands:  1 eigenvalues not converged
     c_bands:  2 eigenvalues not converged
     c_bands:  2 eigenvalues not converged
     ethr =  1.00E-06,  avg # of iterations = 15.9

     total cpu time spent up to now is      154.7 secs

     total energy              =    -111.34454787 Ry
     estimated scf accuracy    <       0.72175754 Ry

     total magnetization       =     4.47 Bohr mag/cell
     absolute magnetization    =     4.47 Bohr mag/cell

     iteration #  2     ecut=    30.00 Ry     beta= 0.50
     Davidson diagonalization with overlap
     ethr =  4.51E-03,  avg # of iterations =  2.4

     total cpu time spent up to now is      156.3 secs

     total energy              =    -111.57145059 Ry
     estimated scf accuracy    <       0.15192675 Ry

     total magnetization       =     5.00 Bohr mag/cell
     absolute magnetization    =     5.02 Bohr mag/cell

     iteration #  3     ecut=    30.00 Ry     beta= 0.50
     Davidson diagonalization with overlap
     ethr =  9.50E-04,  avg # of iterations =  1.4

     total cpu time spent up to now is      157.5 secs

     total energy              =    -111.59787402 Ry
     estimated scf accuracy    <       0.00554405 Ry

     total magnetization       =     4.75 Bohr mag/cell
     absolute magnetization    =     4.82 Bohr mag/cell

     iteration #  4     ecut=    30.00 Ry     beta= 0.50
     Davidson diagonalization with overlap
     ethr =  3.47E-05,  avg # of iterations =  3.4

     total cpu time spent up to now is      159.1 secs

     total energy              =    -111.60326650 Ry
     estimated scf accuracy    <       0.01210804 Ry

     total magnetization       =     4.55 Bohr mag/cell
     absolute magnetization    =     4.81 Bohr mag/cell

     iteration #  5     ecut=    30.00 Ry     beta= 0.50
     Davidson diagonalization with overlap
     ethr =  3.47E-05,  avg # of iterations =  1.9

     total cpu time spent up to now is      160.5 secs

     total energy              =    -111.60406387 Ry
     estimated scf accuracy    <       0.00196242 Ry

     total magnetization       =     4.59 Bohr mag/cell
     absolute magnetization    =     4.87 Bohr mag/cell

     iteration #  6     ecut=    30.00 Ry     beta= 0.50
     Davidson diagonalization with overlap
     ethr =  1.23E-05,  avg # of iterations =  1.9

     total cpu time spent up to now is      161.8 secs

     total energy              =    -111.60451068 Ry
     estimated scf accuracy    <       0.00026038 Ry

     total magnetization       =     4.60 Bohr mag/cell
     absolute magnetization    =     4.88 Bohr mag/cell

     iteration #  7     ecut=    30.00 Ry     beta= 0.50
     Davidson diagonalization with overlap
     ethr =  1.63E-06,  avg # of iterations =  2.4

     total cpu time spent up to now is      163.3 secs

     total energy              =    -111.60436523 Ry
     estimated scf accuracy    <       0.00106291 Ry

     total magnetization       =     4.61 Bohr mag/cell
     absolute magnetization    =     4.90 Bohr mag/cell

     iteration #  8     ecut=    30.00 Ry     beta= 0.50
     Davidson diagonalization with overlap
     ethr =  1.63E-06,  avg # of iterations =  1.5

     total cpu time spent up to now is      164.5 secs

     total energy              =    -111.60421744 Ry
     estimated scf accuracy    <       0.00032215 Ry

     total magnetization       =     4.63 Bohr mag/cell
     absolute magnetization    =     4.92 Bohr mag/cell

     iteration #  9     ecut=    30.00 Ry     beta= 0.50
     Davidson diagonalization with overlap
     ethr =  1.63E-06,  avg # of iterations =  2.7

     total cpu time spent up to now is      166.0 secs

     total energy              =    -111.60436084 Ry
     estimated scf accuracy    <       0.00004995 Ry

     total magnetization       =     4.67 Bohr mag/cell
     absolute magnetization    =     4.97 Bohr mag/cell

     iteration # 10     ecut=    30.00 Ry     beta= 0.50
     Davidson diagonalization with overlap
     ethr =  3.12E-07,  avg # of iterations =  1.4

     total cpu time spent up to now is      167.3 secs

     total energy              =    -111.60435540 Ry
     estimated scf accuracy    <       0.00002284 Ry

     total magnetization       =     4.67 Bohr mag/cell
     absolute magnetization    =     4.97 Bohr mag/cell

     iteration # 11     ecut=    30.00 Ry     beta= 0.50
     Davidson diagonalization with overlap
     ethr =  1.43E-07,  avg # of iterations =  2.4

     total cpu time spent up to now is      168.7 secs

     total energy              =    -111.60436178 Ry
     estimated scf accuracy    <       0.00000034 Ry

     total magnetization       =     4.66 Bohr mag/cell
     absolute magnetization    =     4.96 Bohr mag/cell

     iteration # 12     ecut=    30.00 Ry     beta= 0.50
     Davidson diagonalization with overlap
     ethr =  2.13E-09,  avg # of iterations =  8.6

     total cpu time spent up to now is      172.3 secs

     total energy              =    -111.60436357 Ry
     estimated scf accuracy    <          6.9E-09 Ry

     total magnetization       =     4.66 Bohr mag/cell
     absolute magnetization    =     4.96 Bohr mag/cell

     iteration # 13     ecut=    30.00 Ry     beta= 0.50
     Davidson diagonalization with overlap
     ethr =  4.31E-11,  avg # of iterations =  7.0

     total cpu time spent up to now is      174.7 secs

     total energy              =    -111.60436359 Ry
     estimated scf accuracy    <          1.3E-09 Ry

     total magnetization       =     4.66 Bohr mag/cell
     absolute magnetization    =     4.96 Bohr mag/cell

     iteration # 14     ecut=    30.00 Ry     beta= 0.50
     Davidson diagonalization with overlap
     ethr =  8.10E-12,  avg # of iterations =  3.8

     Magnetic moment per site  (integrated on atomic sphere of radius R)
     atom   1 (R=0.357)  charge=  6.1876  magn=  2.3830
     atom   2 (R=0.357)  charge=  6.1876  magn=  2.3831

     total cpu time spent up to now is      176.5 secs

     End of self-consistent calculation

     Number of k-points >= 100: set verbosity='high' to print the bands.

     the Fermi energy is    13.2632 ev

!    total energy              =    -111.60436359 Ry
     estimated scf accuracy    <          2.3E-10 Ry
     smearing contrib. (-TS)   =       0.00020754 Ry
     internal energy E=F+TS    =    -111.60457113 Ry

     The total energy is F=E-TS. E is the sum of the following terms:
     one-electron contribution =      14.74179627 Ry
     hartree contribution      =      13.15949736 Ry
     xc contribution           =     -52.90080961 Ry
     ewald contribution        =     -86.60505515 Ry

     total magnetization       =     4.66 Bohr mag/cell
     absolute magnetization    =     4.96 Bohr mag/cell

     convergence has been achieved in  14 iterations

     Forces acting on atoms (cartesian axes, Ry/au):

     atom    1 type  1   force =     0.00000000    0.00000000    0.00000000
     atom    2 type  1   force =     0.00000000    0.00000000    0.00000000

     Total force =     0.000000     Total SCF correction =     0.000000


     Computing stress (Cartesian axis) and pressure

          total   stress  (Ry/bohr**3)                   (kbar)     P=        0.15
   0.00000102   0.00000000   0.00000000            0.15        0.00        0.00
   0.00000000   0.00000102   0.00000000            0.00        0.15        0.00
   0.00000000   0.00000000   0.00000102            0.00        0.00        0.15

     Message from routine punch:
     Nothing written, as per user request (disk_io='none')

     init_run     :      2.15s CPU      2.29s WALL (       2 calls)
     electrons    :    156.52s CPU    167.70s WALL (       7 calls)
     update_pot   :      0.12s CPU      0.12s WALL (       5 calls)
     forces       :      1.10s CPU      1.12s WALL (       7 calls)
     stress       :      5.57s CPU      5.84s WALL (       7 calls)

     Called by init_run:
     wfcinit      :      1.11s CPU      1.19s WALL (       2 calls)
     potinit      :      0.31s CPU      0.32s WALL (       2 calls)
     hinit0       :      0.62s CPU      0.63s WALL (       2 calls)

     Called by electrons:
     c_bands      :    130.76s CPU    140.39s WALL (      84 calls)
     sum_band     :     21.92s CPU     23.38s WALL (      84 calls)
     v_of_rho     :      1.65s CPU      1.70s WALL (      89 calls)
     newd         :      2.27s CPU      2.32s WALL (      89 calls)
     mix_rho      :      0.14s CPU      0.14s WALL (      84 calls)

     Called by c_bands:
     init_us_2    :      3.60s CPU      3.91s WALL (   44160 calls)
     cegterg      :    121.08s CPU    129.98s WALL (   20160 calls)

     Called by *egterg:
     cdiaghg      :     14.23s CPU     15.19s WALL (   72395 calls)
     h_psi        :     92.34s CPU     99.05s WALL (   74555 calls)
     s_psi        :      2.05s CPU      2.20s WALL (   74555 calls)
     g_psi        :      0.49s CPU      0.52s WALL (   53915 calls)

     Called by h_psi:
     h_psi:calbec :      5.02s CPU      5.50s WALL (   74555 calls)
     vloc_psi     :     83.86s CPU     89.83s WALL (   74555 calls)
     add_vuspsi   :      2.39s CPU      2.58s WALL (   74555 calls)

     General routines
     calbec       :      7.64s CPU      8.37s WALL (  123275 calls)
     fft          :      0.87s CPU      0.89s WALL (    2500 calls)
     ffts         :      0.27s CPU      0.27s WALL (     346 calls)
     fftw         :     82.89s CPU     88.97s WALL ( 1582648 calls)
     interpolate  :      0.31s CPU      0.31s WALL (     178 calls)

     Parallel routines

     PWSCF        :   2m45.89s CPU   2m57.51s WALL


   This run was terminated on:   1:13:52  21Oct2025            

=------------------------------------------------------------------------------=
   JOB DONE.
=------------------------------------------------------------------------------=
