
     Program PWSCF v.7.4.1 starts on  8Oct2025 at  0:23:17 

     This program is part of the open-source Quantum ESPRESSO suite
     for quantum simulation of materials; please cite
         "P. Giannozzi et al., J. Phys.:Condens. Matter 21 395502 (2009);
         "P. Giannozzi et al., J. Phys.:Condens. Matter 29 465901 (2017);
         "P. Giannozzi et al., J. Chem. Phys. 152 154105 (2020);
          URL http://www.quantum-espresso.org", 
     in publications or presentations arising from this work. More details at
     http://www.quantum-espresso.org/quote

     Parallel version (MPI), running on     1 processors

     MPI processes distributed on     1 nodes
     146 MiB available memory on the printing compute node when the environment starts

     Waiting for input...
     Reading input from standard input
Warning: card &CELL ignored
Warning: card / ignored

     Current dimensions of program PWSCF are:
     Max number of different atomic species (ntypx) = 10
     Max number of k-points (npk) =  40000
     Max angular momentum in pseudopotentials (lmaxx) =  4
     Message from routine setup:
     using ibrav=0 with symmetry is DISCOURAGED, use correct ibrav instead

     Subspace diagonalization in iterative solution of the eigenvalue problem:
     a serial algorithm will be used


     G-vector sticks info
     --------------------
     sticks:   dense  smooth     PW     G-vecs:    dense   smooth      PW
     Sum         241     241     85                 2421     2421     531

     Using Slab Decomposition



     bravais-lattice index     =            0
     lattice parameter (alat)  =       7.5604  a.u.
     unit-cell volume          =     305.5804 (a.u.)^3
     number of atoms/cell      =            2
     number of atomic types    =            1
     number of electrons       =        28.00
     number of Kohn-Sham states=           14
     kinetic-energy cutoff     =      15.0000  Ry
     charge density cutoff     =      60.0000  Ry
     scf convergence threshold =      1.0E-07
     mixing beta               =       0.5000
     number of iterations used =            8  plain     mixing
     Exchange-correlation=  SLA  PZ   NOGX NOGC
                           (   1   1   0   0   0   0   0)

     celldm(1)=   7.560435  celldm(2)=   0.000000  celldm(3)=   0.000000
     celldm(4)=   0.000000  celldm(5)=   0.000000  celldm(6)=   0.000000

     crystal axes: (cart. coord. in units of alat)
               a(1) = (   0.000000   0.707107   0.707107 )  
               a(2) = (   0.707107   0.000000   0.707107 )  
               a(3) = (   0.707107   0.707107   0.000000 )  

     reciprocal axes: (cart. coord. in units 2 pi/alat)
               b(1) = ( -0.707107  0.707107  0.707107 )  
               b(2) = (  0.707107 -0.707107  0.707107 )  
               b(3) = (  0.707107  0.707107 -0.707107 )  


     PseudoPot. # 1 for Ge read from file:
     /home/bond/Software/QE/qe-7.4.1/pseudo/ge_lda_v1.4.uspp.F.UPF
     MD5 check sum: bf9d52b59cc8a669818bb2b52e0c2ba0
     Pseudo is Ultrasoft + core correction, Zval = 14.0
     Generated by new atomic code, or converted to UPF format
     Using radial grid of  873 points,  6 beta functions with: 
                l(1) =   0
                l(2) =   0
                l(3) =   1
                l(4) =   1
                l(5) =   2
                l(6) =   2
     Q(r) pseudized with  8 coefficients,  rinner =    1.400   1.400   1.400
                                                       1.400   1.400

     atomic species   valence    mass     pseudopotential
     Ge               14.00    72.63000     Ge( 1.00)

      4 Sym. Ops. (no inversion) found



   Cartesian axes

     site n.     atom                  positions (alat units)
         1        Ge     tau(   1) = (   0.0000000   0.0000000   0.0707107  )
         2        Ge     tau(   2) = (   0.3535534   0.3535534   0.3535534  )

     number of k points=    18
                       cart. coord. in units 2pi/alat
        k(    1) = (   0.0000000   0.0000000   0.0000000), wk =   0.0312500
        k(    2) = (   0.1767767   0.1767767  -0.1767767), wk =   0.1250000
        k(    3) = (  -0.3535534  -0.3535534   0.3535534), wk =   0.0625000
        k(    4) = (   0.3535534   0.0000000   0.0000000), wk =   0.1250000
        k(    5) = (  -0.1767767  -0.5303301   0.5303301), wk =   0.2500000
        k(    6) = (   0.0000000  -0.3535534   0.3535534), wk =   0.2500000
        k(    7) = (  -0.7071068   0.0000000   0.0000000), wk =   0.0625000
        k(    8) = (  -0.7071068   0.3535534   0.0000000), wk =   0.1250000
        k(    9) = (   0.1767767  -0.1767767  -0.1767767), wk =   0.1250000
        k(   10) = (  -0.3535534   0.3535534   0.3535534), wk =   0.0625000
        k(   11) = (   0.0000000   0.0000000   0.3535534), wk =   0.0625000
        k(   12) = (  -0.5303301   0.1767767   0.5303301), wk =   0.2500000
        k(   13) = (   0.5303301   0.5303301  -0.1767767), wk =   0.1250000
        k(   14) = (  -0.5303301   0.5303301   0.1767767), wk =   0.1250000
        k(   15) = (   0.3535534   0.3535534   0.0000000), wk =   0.0625000
        k(   16) = (  -0.3535534   0.3535534   0.0000000), wk =   0.0625000
        k(   17) = (   0.0000000   0.0000000  -0.7071068), wk =   0.0312500
        k(   18) = (   0.7071068   0.0000000   0.3535534), wk =   0.0625000

     Dense  grid:     2421 G-vectors     FFT dimensions: (  20,  20,  20)

     Estimated max dynamical RAM per process >      10.99 MB

     Check: negative core charge=   -0.006950

     Initial potential from superposition of free atoms

     starting charge      27.9986, renormalised to      28.0000

     negative rho (up, down):  2.549E-03 0.000E+00
     Starting wfcs are   18 randomized atomic wfcs

     total cpu time spent up to now is        0.7 secs

     Self-consistent Calculation

     iteration #  1     ecut=    15.00 Ry     beta= 0.50
     Davidson diagonalization with overlap
     ethr =  1.00E-02,  avg # of iterations =  2.0

     negative rho (up, down):  2.256E-03 0.000E+00

     total cpu time spent up to now is        0.8 secs

     total energy              =    -417.63030332 Ry
     estimated scf accuracy    <       2.22086078 Ry

     iteration #  2     ecut=    15.00 Ry     beta= 0.50
     Davidson diagonalization with overlap
     ethr =  7.93E-03,  avg # of iterations =  2.0

     negative rho (up, down):  3.090E-03 0.000E+00

     total cpu time spent up to now is        1.0 secs

     total energy              =    -417.88470890 Ry
     estimated scf accuracy    <       0.11550772 Ry

     iteration #  3     ecut=    15.00 Ry     beta= 0.50
     Davidson diagonalization with overlap
     ethr =  4.13E-04,  avg # of iterations =  2.1

     negative rho (up, down):  3.535E-03 0.000E+00

     total cpu time spent up to now is        1.1 secs

     total energy              =    -417.89972715 Ry
     estimated scf accuracy    <       0.00472358 Ry

     iteration #  4     ecut=    15.00 Ry     beta= 0.50
     Davidson diagonalization with overlap
     ethr =  1.69E-05,  avg # of iterations =  3.1

     negative rho (up, down):  3.444E-03 0.000E+00

     total cpu time spent up to now is        1.3 secs

     total energy              =    -417.90284528 Ry
     estimated scf accuracy    <       0.00074335 Ry

     iteration #  5     ecut=    15.00 Ry     beta= 0.50
     Davidson diagonalization with overlap
     ethr =  2.65E-06,  avg # of iterations =  1.8

     negative rho (up, down):  2.753E-03 0.000E+00

     total cpu time spent up to now is        1.4 secs

     total energy              =    -417.90254684 Ry
     estimated scf accuracy    <       0.00054155 Ry

     iteration #  6     ecut=    15.00 Ry     beta= 0.50
     Davidson diagonalization with overlap
     ethr =  1.93E-06,  avg # of iterations =  3.3

     negative rho (up, down):  3.030E-03 0.000E+00

     total cpu time spent up to now is        1.5 secs

     total energy              =    -417.90258294 Ry
     estimated scf accuracy    <       0.00032777 Ry

     iteration #  7     ecut=    15.00 Ry     beta= 0.50
     Davidson diagonalization with overlap
     ethr =  1.17E-06,  avg # of iterations =  3.2

     negative rho (up, down):  3.032E-03 0.000E+00

     total cpu time spent up to now is        1.7 secs

     total energy              =    -417.90423431 Ry
     estimated scf accuracy    <       0.00018692 Ry

     iteration #  8     ecut=    15.00 Ry     beta= 0.50
     Davidson diagonalization with overlap
     ethr =  6.68E-07,  avg # of iterations =  1.0

     negative rho (up, down):  2.988E-03 0.000E+00

     total cpu time spent up to now is        1.8 secs

     total energy              =    -417.90420170 Ry
     estimated scf accuracy    <       0.00019669 Ry

     iteration #  9     ecut=    15.00 Ry     beta= 0.50
     Davidson diagonalization with overlap
     ethr =  6.68E-07,  avg # of iterations =  1.0

     negative rho (up, down):  2.997E-03 0.000E+00

     total cpu time spent up to now is        1.9 secs

     total energy              =    -417.90421370 Ry
     estimated scf accuracy    <       0.00013598 Ry

     iteration # 10     ecut=    15.00 Ry     beta= 0.50
     Davidson diagonalization with overlap
     ethr =  4.86E-07,  avg # of iterations =  1.0

     negative rho (up, down):  2.975E-03 0.000E+00

     total cpu time spent up to now is        2.0 secs

     total energy              =    -417.90419944 Ry
     estimated scf accuracy    <       0.00014441 Ry

     iteration # 11     ecut=    15.00 Ry     beta= 0.50
     Davidson diagonalization with overlap
     ethr =  4.86E-07,  avg # of iterations =  1.0

     negative rho (up, down):  2.938E-03 0.000E+00

     total cpu time spent up to now is        2.1 secs

     total energy              =    -417.90416639 Ry
     estimated scf accuracy    <       0.00011002 Ry

     iteration # 12     ecut=    15.00 Ry     beta= 0.50
     Davidson diagonalization with overlap
     ethr =  3.93E-07,  avg # of iterations =  2.1

     negative rho (up, down):  2.919E-03 0.000E+00

     total cpu time spent up to now is        2.2 secs

     total energy              =    -417.90416104 Ry
     estimated scf accuracy    <       0.00004710 Ry

     iteration # 13     ecut=    15.00 Ry     beta= 0.50
     Davidson diagonalization with overlap
     ethr =  1.68E-07,  avg # of iterations =  1.2

     negative rho (up, down):  2.898E-03 0.000E+00

     total cpu time spent up to now is        2.3 secs

     total energy              =    -417.90415410 Ry
     estimated scf accuracy    <       0.00002965 Ry

     iteration # 14     ecut=    15.00 Ry     beta= 0.50
     Davidson diagonalization with overlap
     ethr =  1.06E-07,  avg # of iterations =  1.7

     negative rho (up, down):  2.881E-03 0.000E+00

     total cpu time spent up to now is        2.4 secs

     total energy              =    -417.90415052 Ry
     estimated scf accuracy    <       0.00001451 Ry

     iteration # 15     ecut=    15.00 Ry     beta= 0.50
     Davidson diagonalization with overlap
     ethr =  5.18E-08,  avg # of iterations =  2.1

     negative rho (up, down):  2.860E-03 0.000E+00

     total cpu time spent up to now is        2.5 secs

     total energy              =    -417.90414784 Ry
     estimated scf accuracy    <       0.00000626 Ry

     iteration # 16     ecut=    15.00 Ry     beta= 0.50
     Davidson diagonalization with overlap
     ethr =  2.24E-08,  avg # of iterations =  2.7

     negative rho (up, down):  2.851E-03 0.000E+00

     total cpu time spent up to now is        2.6 secs

     total energy              =    -417.90414814 Ry
     estimated scf accuracy    <       0.00000067 Ry

     iteration # 17     ecut=    15.00 Ry     beta= 0.50
     Davidson diagonalization with overlap
     ethr =  2.39E-09,  avg # of iterations =  3.9

     negative rho (up, down):  2.851E-03 0.000E+00

     total cpu time spent up to now is        2.8 secs

     End of self-consistent calculation

          k = 0.0000 0.0000 0.0000 (   307 PWs)   bands (ev):

   -23.9181 -23.7277 -23.2972 -23.2413 -22.8973 -22.8244 -22.5877 -22.3157
   -22.1899 -20.4075  -5.2322   6.3623   6.5337   7.8486

          k = 0.1768 0.1768-0.1768 (   302 PWs)   bands (ev):

   -23.4887 -23.2038 -23.1161 -22.8381 -22.8143 -22.3017 -22.1569 -21.9707
   -21.6555 -20.8395  -4.4701   2.0946   6.4848   7.6147

          k =-0.3536-0.3536 0.3536 (   302 PWs)   bands (ev):

   -24.5804 -23.9259 -23.1386 -23.0684 -22.2756 -22.1147 -22.0184 -21.6599
   -20.3909 -19.5331  -2.9032  -0.8793   5.9188   7.0989

          k = 0.3536 0.0000 0.0000 (   303 PWs)   bands (ev):

   -23.7970 -23.4605 -23.3476 -22.9347 -22.5646 -22.3762 -22.2961 -21.9699
   -21.5957 -20.8898  -4.2700   2.2741   5.8427   5.9711

          k =-0.1768-0.5303 0.5303 (   298 PWs)   bands (ev):

   -23.2439 -23.0392 -22.7760 -22.5015 -22.1638 -21.9724 -21.9251 -21.6557
   -21.1314 -20.2373  -2.6181  -0.6465   4.4288   5.5298

          k = 0.0000-0.3536 0.3536 (   295 PWs)   bands (ev):

   -23.3704 -23.0563 -22.8752 -22.2607 -22.1338 -21.7849 -21.4500 -20.9798
   -20.7481 -19.7004  -3.4845   0.8405   3.8480   6.4507

          k =-0.7071 0.0000 0.0000 (   302 PWs)   bands (ev):

   -23.5449 -23.5448 -22.9212 -22.9212 -22.4340 -22.4340 -21.5285 -21.5284
   -21.4076 -21.4076  -1.5654  -1.5654   4.9078   4.9078

          k =-0.7071 0.3536 0.0000 (   308 PWs)   bands (ev):

   -23.6176 -23.4239 -23.1963 -23.1285 -22.8494 -22.7721 -22.6262 -22.5925
   -21.8652 -21.5655  -2.1207  -0.6685   3.5368   4.3203

          k = 0.1768-0.1768-0.1768 (   302 PWs)   bands (ev):

   -23.6541 -23.3120 -23.1057 -22.7244 -22.4915 -22.4438 -22.0572 -21.7972
   -21.6388 -21.1987  -4.5945   3.2199   5.8633   7.2804

          k =-0.3536 0.3536 0.3536 (   302 PWs)   bands (ev):

   -23.7610 -23.5596 -22.9650 -22.9296 -22.5564 -22.4373 -22.1626 -21.6441
   -21.2334 -20.0164  -3.6061   0.8076   5.4855   6.8023

          k = 0.0000 0.0000 0.3536 (   303 PWs)   bands (ev):

   -23.9095 -23.5633 -23.2399 -23.0042 -22.6662 -22.3624 -22.0271 -21.8572
   -21.4961 -21.0694  -4.3022   2.7191   5.0895   6.1736

          k =-0.5303 0.1768 0.5303 (   298 PWs)   bands (ev):

   -23.3479 -23.1053 -22.6998 -22.5614 -22.2513 -22.1886 -21.6197 -21.4860
   -21.2910 -20.0271  -3.1153   0.5768   3.6119   5.6347

          k = 0.5303 0.5303-0.1768 (   298 PWs)   bands (ev):

   -23.4580 -23.3487 -22.7201 -22.5761 -22.5689 -22.1615 -21.3710 -21.1998
   -20.9039 -20.1360  -2.7860  -0.2187   3.6951   5.8453

          k =-0.5303 0.5303 0.1768 (   298 PWs)   bands (ev):

   -23.4758 -23.1591 -23.1425 -22.5439 -22.4539 -22.2309 -21.6813 -21.3965
   -20.9053 -19.2646  -3.1791   0.7155   4.3925   4.7839

          k = 0.3536 0.3536 0.0000 (   295 PWs)   bands (ev):

   -23.1673 -23.1064 -22.7497 -22.7408 -22.5784 -22.1775 -22.0368 -20.0870
   -19.9957 -19.3932  -3.1705  -0.0858   4.0260   6.9315

          k =-0.3536 0.3536 0.0000 (   295 PWs)   bands (ev):

   -23.4976 -23.1176 -22.3861 -22.2304 -21.8605 -21.6214 -21.3188 -21.2745
   -20.8955 -20.2660  -3.7151   1.8526   3.9510   5.4349

          k = 0.0000 0.0000-0.7071 (   302 PWs)   bands (ev):

   -23.8753 -23.7048 -23.1650 -22.9293 -22.7879 -22.5514 -22.4477 -21.3444
   -20.7347 -19.5381  -2.4023  -0.3698   4.2561   5.1062

          k = 0.7071 0.0000 0.3536 (   308 PWs)   bands (ev):

   -23.6161 -23.6161 -23.1423 -23.1423 -22.8791 -22.8791 -22.5234 -22.5234
   -21.6294 -21.6294  -1.4927  -1.4927   4.0469   4.0469

     highest occupied level (ev):     7.8486

!    total energy              =    -417.90414835 Ry
     estimated scf accuracy    <          5.1E-09 Ry

     The total energy is the sum of the following terms:
     one-electron contribution =    -258.06511902 Ry
     hartree contribution      =     148.19942870 Ry
     xc contribution           =    -111.28923925 Ry
     ewald contribution        =    -196.74921878 Ry

     convergence has been achieved in  17 iterations

     negative rho (up, down):  2.851E-03 0.000E+00

     Forces acting on atoms (cartesian axes, Ry/au):

     atom    1 type  1   force =     0.00000000    0.00000000    0.04477255
     atom    2 type  1   force =     0.00000000    0.00000000   -0.04477255

     Total force =     0.063318     Total SCF correction =     0.000787


     Computing stress (Cartesian axis) and pressure


     negative rho (up, down):  2.851E-03 0.000E+00
          total   stress  (Ry/bohr**3)                   (kbar)     P=   -14583.50
  -0.09890895   0.00066563  -0.00000000       -14550.01       97.92       -0.00
   0.00066563  -0.09890895   0.00000000           97.92   -14550.01        0.00
  -0.00000000   0.00000000  -0.09959191           -0.00        0.00   -14650.48

     Message from routine punch:
     Nothing written, as per user request (disk_io='none')

     init_run     :      0.52s CPU      0.52s WALL (       1 calls)
     electrons    :      2.05s CPU      2.10s WALL (       1 calls)
     forces       :      0.02s CPU      0.02s WALL (       1 calls)
     stress       :      0.16s CPU      0.16s WALL (       1 calls)

     Called by init_run:
     wfcinit      :      0.19s CPU      0.19s WALL (       1 calls)
     potinit      :      0.01s CPU      0.01s WALL (       1 calls)
     hinit0       :      0.30s CPU      0.30s WALL (       1 calls)

     Called by electrons:
     c_bands      :      1.50s CPU      1.54s WALL (      17 calls)
     sum_band     :      0.39s CPU      0.39s WALL (      17 calls)
     v_of_rho     :      0.01s CPU      0.01s WALL (      18 calls)
     newd         :      0.16s CPU      0.16s WALL (      18 calls)
     mix_rho      :      0.01s CPU      0.01s WALL (      17 calls)

     Called by c_bands:
     init_us_2    :      0.08s CPU      0.08s WALL (     666 calls)
     cegterg      :      1.29s CPU      1.33s WALL (     306 calls)

     Called by *egterg:
     cdiaghg      :      0.22s CPU      0.22s WALL (     937 calls)
     h_psi        :      1.05s CPU      1.07s WALL (     955 calls)
     s_psi        :      0.04s CPU      0.04s WALL (     955 calls)
     g_psi        :      0.01s CPU      0.01s WALL (     631 calls)

     Called by h_psi:
     h_psi:calbec :      0.05s CPU      0.05s WALL (     955 calls)
     vloc_psi     :      0.94s CPU      0.96s WALL (     955 calls)
     add_vuspsi   :      0.04s CPU      0.05s WALL (     955 calls)

     General routines
     calbec       :      0.08s CPU      0.08s WALL (    1567 calls)
     fft          :      0.15s CPU      0.15s WALL (      80 calls)
     ffts         :      0.00s CPU      0.00s WALL (      17 calls)
     fftw         :      0.84s CPU      0.86s WALL (   24818 calls)

     Parallel routines

     PWSCF        :      2.89s CPU      2.96s WALL


   This run was terminated on:   0:23:20   8Oct2025            

=------------------------------------------------------------------------------=
   JOB DONE.
=------------------------------------------------------------------------------=
