Header of the LAMMPS data file 

8787 atoms 
1 atom types

0.0 53.06151376322511  xlo xhi
0.0 53.06151376322511  ylo yhi
0.0 53.06151376322511  zlo zhi

Masses 

1  26.9815385

Atoms # atomic 

1 1 0.00000 0.00000 0.00000 
2 1 0.00000 2.04083 2.04083 
3 1 2.04083 2.04083 0.00000 
4 1 0.00000 0.00000 4.08165 
5 1 0.00000 2.04083 6.12248 
6 1 2.04083 0.00000 6.12248 
7 1 2.04083 2.04083 4.08165 
8 1 0.00000 0.00000 8.16331 
9 1 0.00000 2.04083 10.20414 
10 1 2.04083 0.00000 10.20414 
11 1 2.04083 2.04083 8.16331 
12 1 0.00000 0.00000 12.24496 
13 1 0.00000 2.04083 14.28579 
14 1 2.04083 0.00000 14.28579 
15 1 2.04083 2.04083 12.24496 
16 1 0.00000 0.00000 16.32662 
17 1 0.00000 2.04083 18.36745 
18 1 2.04083 0.00000 18.36745 
19 1 2.04083 2.04083 16.32662 
20 1 0.00000 0.00000 20.40827 
21 1 0.00000 2.04083 22.44910 
22 1 2.04083 0.00000 22.44910 
23 1 2.04083 2.04083 20.40827 
24 1 0.00000 0.00000 24.48993 
25 1 0.00000 2.04083 26.53076 
26 1 2.04083 0.00000 26.53076 
27 1 2.04083 2.04083 24.48993 
28 1 0.00000 0.00000 28.57158 
29 1 0.00000 2.04083 30.61241 
30 1 2.04083 0.00000 30.61241 
31 1 2.04083 2.04083 28.57158 
32 1 0.00000 0.00000 32.65324 
33 1 0.00000 2.04083 34.69407 
34 1 2.04083 0.00000 34.69407 
35 1 2.04083 2.04083 32.65324 
36 1 0.00000 0.00000 36.73489 
37 1 0.00000 2.04083 38.77572 
38 1 2.04083 0.00000 38.77572 
39 1 2.04083 2.04083 36.73489 
40 1 0.00000 0.00000 40.81655 
41 1 0.00000 2.04083 42.85738 
42 1 2.04083 0.00000 42.85738 
43 1 2.04083 2.04083 40.81655 
44 1 0.00000 0.00000 44.89820 
45 1 0.00000 2.04083 46.93903 
46 1 2.04083 0.00000 46.93903 
47 1 2.04083 2.04083 44.89820 
48 1 0.00000 0.00000 48.97986 
49 1 0.00000 2.04083 51.02069 
50 1 2.04083 0.00000 51.02069 
51 1 2.04083 2.04083 48.97986 
52 1 0.00000 4.08165 0.00000 
53 1 0.00000 6.12248 2.04083 
54 1 2.04083 4.08165 2.04083 
55 1 2.04083 6.12248 0.00000 
56 1 0.00000 4.08165 4.08165 
57 1 0.00000 6.12248 6.12248 
58 1 2.04083 4.08165 6.12248 
59 1 2.04083 6.12248 4.08165 
60 1 0.00000 4.08165 8.16331 
61 1 0.00000 6.12248 10.20414 
62 1 2.04083 4.08165 10.20414 
63 1 2.04083 6.12248 8.16331 
64 1 0.00000 4.08165 12.24496 
65 1 0.00000 6.12248 14.28579 
66 1 2.04083 4.08165 14.28579 
67 1 2.04083 6.12248 12.24496 
68 1 0.00000 4.08165 16.32662 
69 1 0.00000 6.12248 18.36745 
70 1 2.04083 4.08165 18.36745 
71 1 2.04083 6.12248 16.32662 
72 1 0.00000 4.08165 20.40827 
73 1 0.00000 6.12248 22.44910 
74 1 2.04083 4.08165 22.44910 
75 1 2.04083 6.12248 20.40827 
76 1 0.00000 4.08165 24.48993 
77 1 0.00000 6.12248 26.53076 
78 1 2.04083 4.08165 26.53076 
79 1 2.04083 6.12248 24.48993 
80 1 0.00000 4.08165 28.57158 
81 1 0.00000 6.12248 30.61241 
82 1 2.04083 4.08165 30.61241 
83 1 2.04083 6.12248 28.57158 
84 1 0.00000 4.08165 32.65324 
85 1 0.00000 6.12248 34.69407 
86 1 2.04083 4.08165 34.69407 
87 1 2.04083 6.12248 32.65324 
88 1 0.00000 4.08165 36.73489 
89 1 0.00000 6.12248 38.77572 
90 1 2.04083 4.08165 38.77572 
91 1 2.04083 6.12248 36.73489 
92 1 0.00000 4.08165 40.81655 
93 1 0.00000 6.12248 42.85738 
94 1 2.04083 4.08165 42.85738 
95 1 2.04083 6.12248 40.81655 
96 1 0.00000 4.08165 44.89820 
97 1 0.00000 6.12248 46.93903 
98 1 2.04083 4.08165 46.93903 
99 1 2.04083 6.12248 44.89820 
100 1 0.00000 4.08165 48.97986 
101 1 0.00000 6.12248 51.02069 
102 1 2.04083 4.08165 51.02069 
103 1 2.04083 6.12248 48.97986 
104 1 0.00000 8.16331 0.00000 
105 1 0.00000 10.20414 2.04083 
106 1 2.04083 8.16331 2.04083 
107 1 2.04083 10.20414 0.00000 
108 1 0.00000 8.16331 4.08165 
109 1 0.00000 10.20414 6.12248 
110 1 2.04083 8.16331 6.12248 
111 1 2.04083 10.20414 4.08165 
112 1 0.00000 8.16331 8.16331 
113 1 0.00000 10.20414 10.20414 
114 1 2.04083 8.16331 10.20414 
115 1 2.04083 10.20414 8.16331 
116 1 0.00000 8.16331 12.24496 
117 1 0.00000 10.20414 14.28579 
118 1 2.04083 8.16331 14.28579 
119 1 2.04083 10.20414 12.24496 
120 1 0.00000 8.16331 16.32662 
121 1 0.00000 10.20414 18.36745 
122 1 2.04083 8.16331 18.36745 
123 1 2.04083 10.20414 16.32662 
124 1 0.00000 8.16331 20.40827 
125 1 0.00000 10.20414 22.44910 
126 1 2.04083 8.16331 22.44910 
127 1 2.04083 10.20414 20.40827 
128 1 0.00000 8.16331 24.48993 
129 1 0.00000 10.20414 26.53076 
130 1 2.04083 8.16331 26.53076 
131 1 2.04083 10.20414 24.48993 
132 1 0.00000 8.16331 28.57158 
133 1 0.00000 10.20414 30.61241 
134 1 2.04083 8.16331 30.61241 
135 1 2.04083 10.20414 28.57158 
136 1 0.00000 8.16331 32.65324 
137 1 0.00000 10.20414 34.69407 
138 1 2.04083 8.16331 34.69407 
139 1 2.04083 10.20414 32.65324 
140 1 0.00000 8.16331 36.73489 
141 1 0.00000 10.20414 38.77572 
142 1 2.04083 8.16331 38.77572 
143 1 2.04083 10.20414 36.73489 
144 1 0.00000 8.16331 40.81655 
145 1 0.00000 10.20414 42.85738 
146 1 2.04083 8.16331 42.85738 
147 1 2.04083 10.20414 40.81655 
148 1 0.00000 8.16331 44.89820 
149 1 0.00000 10.20414 46.93903 
150 1 2.04083 8.16331 46.93903 
151 1 2.04083 10.20414 44.89820 
152 1 0.00000 8.16331 48.97986 
153 1 0.00000 10.20414 51.02069 
154 1 2.04083 8.16331 51.02069 
155 1 2.04083 10.20414 48.97986 
156 1 0.00000 12.24496 0.00000 
157 1 0.00000 14.28579 2.04083 
158 1 2.04083 12.24496 2.04083 
159 1 2.04083 14.28579 0.00000 
160 1 0.00000 12.24496 4.08165 
161 1 0.00000 14.28579 6.12248 
162 1 2.04083 12.24496 6.12248 
163 1 2.04083 14.28579 4.08165 
164 1 0.00000 12.24496 8.16331 
165 1 0.00000 14.28579 10.20414 
166 1 2.04083 12.24496 10.20414 
167 1 2.04083 14.28579 8.16331 
168 1 0.00000 12.24496 12.24496 
169 1 0.00000 14.28579 14.28579 
170 1 2.04083 12.24496 14.28579 
171 1 2.04083 14.28579 12.24496 
172 1 0.00000 12.24496 16.32662 
173 1 0.00000 14.28579 18.36745 
174 1 2.04083 12.24496 18.36745 
175 1 2.04083 14.28579 16.32662 
176 1 0.00000 12.24496 20.40827 
177 1 0.00000 14.28579 22.44910 
178 1 2.04083 12.24496 22.44910 
179 1 2.04083 14.28579 20.40827 
180 1 0.00000 12.24496 24.48993 
181 1 0.00000 14.28579 26.53076 
182 1 2.04083 12.24496 26.53076 
183 1 2.04083 14.28579 24.48993 
184 1 0.00000 12.24496 28.57158 
185 1 0.00000 14.28579 30.61241 
186 1 2.04083 12.24496 30.61241 
187 1 2.04083 14.28579 28.57158 
188 1 0.00000 12.24496 32.65324 
189 1 0.00000 14.28579 34.69407 
190 1 2.04083 12.24496 34.69407 
191 1 2.04083 14.28579 32.65324 
192 1 0.00000 12.24496 36.73489 
193 1 0.00000 14.28579 38.77572 
194 1 2.04083 12.24496 38.77572 
195 1 2.04083 14.28579 36.73489 
196 1 0.00000 12.24496 40.81655 
197 1 0.00000 14.28579 42.85738 
198 1 2.04083 12.24496 42.85738 
199 1 2.04083 14.28579 40.81655 
200 1 0.00000 12.24496 44.89820 
201 1 0.00000 14.28579 46.93903 
202 1 2.04083 12.24496 46.93903 
203 1 2.04083 14.28579 44.89820 
204 1 0.00000 12.24496 48.97986 
205 1 0.00000 14.28579 51.02069 
206 1 2.04083 12.24496 51.02069 
207 1 2.04083 14.28579 48.97986 
208 1 0.00000 16.32662 0.00000 
209 1 0.00000 18.36745 2.04083 
210 1 2.04083 16.32662 2.04083 
211 1 2.04083 18.36745 0.00000 
212 1 0.00000 16.32662 4.08165 
213 1 0.00000 18.36745 6.12248 
214 1 2.04083 16.32662 6.12248 
215 1 2.04083 18.36745 4.08165 
216 1 0.00000 16.32662 8.16331 
217 1 0.00000 18.36745 10.20414 
218 1 2.04083 16.32662 10.20414 
219 1 2.04083 18.36745 8.16331 
220 1 0.00000 16.32662 12.24496 
221 1 0.00000 18.36745 14.28579 
222 1 2.04083 16.32662 14.28579 
223 1 2.04083 18.36745 12.24496 
224 1 0.00000 16.32662 16.32662 
225 1 0.00000 18.36745 18.36745 
226 1 2.04083 16.32662 18.36745 
227 1 2.04083 18.36745 16.32662 
228 1 0.00000 16.32662 20.40827 
229 1 0.00000 18.36745 22.44910 
230 1 2.04083 16.32662 22.44910 
231 1 2.04083 18.36745 20.40827 
232 1 0.00000 16.32662 24.48993 
233 1 0.00000 18.36745 26.53076 
234 1 2.04083 16.32662 26.53076 
235 1 2.04083 18.36745 24.48993 
236 1 0.00000 16.32662 28.57158 
237 1 0.00000 18.36745 30.61241 
238 1 2.04083 16.32662 30.61241 
239 1 2.04083 18.36745 28.57158 
240 1 0.00000 16.32662 32.65324 
241 1 0.00000 18.36745 34.69407 
242 1 2.04083 16.32662 34.69407 
243 1 2.04083 18.36745 32.65324 
244 1 0.00000 16.32662 36.73489 
245 1 0.00000 18.36745 38.77572 
246 1 2.04083 16.32662 38.77572 
247 1 2.04083 18.36745 36.73489 
248 1 0.00000 16.32662 40.81655 
249 1 0.00000 18.36745 42.85738 
250 1 2.04083 16.32662 42.85738 
251 1 2.04083 18.36745 40.81655 
252 1 0.00000 16.32662 44.89820 
253 1 0.00000 18.36745 46.93903 
254 1 2.04083 16.32662 46.93903 
255 1 2.04083 18.36745 44.89820 
256 1 0.00000 16.32662 48.97986 
257 1 0.00000 18.36745 51.02069 
258 1 2.04083 16.32662 51.02069 
259 1 2.04083 18.36745 48.97986 
260 1 0.00000 20.40827 0.00000 
261 1 0.00000 22.44910 2.04083 
262 1 2.04083 20.40827 2.04083 
263 1 2.04083 22.44910 0.00000 
264 1 0.00000 20.40827 4.08165 
265 1 0.00000 22.44910 6.12248 
266 1 2.04083 20.40827 6.12248 
267 1 2.04083 22.44910 4.08165 
268 1 0.00000 20.40827 8.16331 
269 1 0.00000 22.44910 10.20414 
270 1 2.04083 20.40827 10.20414 
271 1 2.04083 22.44910 8.16331 
272 1 0.00000 20.40827 12.24496 
273 1 0.00000 22.44910 14.28579 
274 1 2.04083 20.40827 14.28579 
275 1 2.04083 22.44910 12.24496 
276 1 0.00000 20.40827 16.32662 
277 1 0.00000 22.44910 18.36745 
278 1 2.04083 20.40827 18.36745 
279 1 2.04083 22.44910 16.32662 
280 1 0.00000 20.40827 20.40827 
281 1 0.00000 22.44910 22.44910 
282 1 2.04083 20.40827 22.44910 
283 1 2.04083 22.44910 20.40827 
284 1 0.00000 20.40827 24.48993 
285 1 0.00000 22.44910 26.53076 
286 1 2.04083 20.40827 26.53076 
287 1 2.04083 22.44910 24.48993 
288 1 0.00000 20.40827 28.57158 
289 1 0.00000 22.44910 30.61241 
290 1 2.04083 20.40827 30.61241 
291 1 2.04083 22.44910 28.57158 
292 1 0.00000 20.40827 32.65324 
293 1 0.00000 22.44910 34.69407 
294 1 2.04083 20.40827 34.69407 
295 1 2.04083 22.44910 32.65324 
296 1 0.00000 20.40827 36.73489 
297 1 0.00000 22.44910 38.77572 
298 1 2.04083 20.40827 38.77572 
299 1 2.04083 22.44910 36.73489 
300 1 0.00000 20.40827 40.81655 
301 1 0.00000 22.44910 42.85738 
302 1 2.04083 20.40827 42.85738 
303 1 2.04083 22.44910 40.81655 
304 1 0.00000 20.40827 44.89820 
305 1 0.00000 22.44910 46.93903 
306 1 2.04083 20.40827 46.93903 
307 1 2.04083 22.44910 44.89820 
308 1 0.00000 20.40827 48.97986 
309 1 0.00000 22.44910 51.02069 
310 1 2.04083 20.40827 51.02069 
311 1 2.04083 22.44910 48.97986 
312 1 0.00000 24.48993 0.00000 
313 1 0.00000 26.53076 2.04083 
314 1 2.04083 24.48993 2.04083 
315 1 2.04083 26.53076 0.00000 
316 1 0.00000 24.48993 4.08165 
317 1 0.00000 26.53076 6.12248 
318 1 2.04083 24.48993 6.12248 
319 1 2.04083 26.53076 4.08165 
320 1 0.00000 24.48993 8.16331 
321 1 0.00000 26.53076 10.20414 
322 1 2.04083 24.48993 10.20414 
323 1 2.04083 26.53076 8.16331 
324 1 0.00000 24.48993 12.24496 
325 1 0.00000 26.53076 14.28579 
326 1 2.04083 24.48993 14.28579 
327 1 2.04083 26.53076 12.24496 
328 1 0.00000 24.48993 16.32662 
329 1 0.00000 26.53076 18.36745 
330 1 2.04083 24.48993 18.36745 
331 1 2.04083 26.53076 16.32662 
332 1 0.00000 24.48993 20.40827 
333 1 0.00000 26.53076 22.44910 
334 1 2.04083 24.48993 22.44910 
335 1 2.04083 26.53076 20.40827 
336 1 0.00000 24.48993 24.48993 
337 1 0.00000 26.53076 26.53076 
338 1 2.04083 24.48993 26.53076 
339 1 2.04083 26.53076 24.48993 
340 1 0.00000 24.48993 28.57158 
341 1 0.00000 26.53076 30.61241 
342 1 2.04083 24.48993 30.61241 
343 1 2.04083 26.53076 28.57158 
344 1 0.00000 24.48993 32.65324 
345 1 0.00000 26.53076 34.69407 
346 1 2.04083 24.48993 34.69407 
347 1 2.04083 26.53076 32.65324 
348 1 0.00000 24.48993 36.73489 
349 1 0.00000 26.53076 38.77572 
350 1 2.04083 24.48993 38.77572 
351 1 2.04083 26.53076 36.73489 
352 1 0.00000 24.48993 40.81655 
353 1 0.00000 26.53076 42.85738 
354 1 2.04083 24.48993 42.85738 
355 1 2.04083 26.53076 40.81655 
356 1 0.00000 24.48993 44.89820 
357 1 0.00000 26.53076 46.93903 
358 1 2.04083 24.48993 46.93903 
359 1 2.04083 26.53076 44.89820 
360 1 0.00000 24.48993 48.97986 
361 1 0.00000 26.53076 51.02069 
362 1 2.04083 24.48993 51.02069 
363 1 2.04083 26.53076 48.97986 
364 1 0.00000 28.57158 0.00000 
365 1 0.00000 30.61241 2.04083 
366 1 2.04083 28.57158 2.04083 
367 1 2.04083 30.61241 0.00000 
368 1 0.00000 28.57158 4.08165 
369 1 0.00000 30.61241 6.12248 
370 1 2.04083 28.57158 6.12248 
371 1 2.04083 30.61241 4.08165 
372 1 0.00000 28.57158 8.16331 
373 1 0.00000 30.61241 10.20414 
374 1 2.04083 28.57158 10.20414 
375 1 2.04083 30.61241 8.16331 
376 1 0.00000 28.57158 12.24496 
377 1 0.00000 30.61241 14.28579 
378 1 2.04083 28.57158 14.28579 
379 1 2.04083 30.61241 12.24496 
380 1 0.00000 28.57158 16.32662 
381 1 0.00000 30.61241 18.36745 
382 1 2.04083 28.57158 18.36745 
383 1 2.04083 30.61241 16.32662 
384 1 0.00000 28.57158 20.40827 
385 1 0.00000 30.61241 22.44910 
386 1 2.04083 28.57158 22.44910 
387 1 2.04083 30.61241 20.40827 
388 1 0.00000 28.57158 24.48993 
389 1 0.00000 30.61241 26.53076 
390 1 2.04083 28.57158 26.53076 
391 1 2.04083 30.61241 24.48993 
392 1 0.00000 28.57158 28.57158 
393 1 0.00000 30.61241 30.61241 
394 1 2.04083 28.57158 30.61241 
395 1 2.04083 30.61241 28.57158 
396 1 0.00000 28.57158 32.65324 
397 1 0.00000 30.61241 34.69407 
398 1 2.04083 28.57158 34.69407 
399 1 2.04083 30.61241 32.65324 
400 1 0.00000 28.57158 36.73489 
401 1 0.00000 30.61241 38.77572 
402 1 2.04083 28.57158 38.77572 
403 1 2.04083 30.61241 36.73489 
404 1 0.00000 28.57158 40.81655 
405 1 0.00000 30.61241 42.85738 
406 1 2.04083 28.57158 42.85738 
407 1 2.04083 30.61241 40.81655 
408 1 0.00000 28.57158 44.89820 
409 1 0.00000 30.61241 46.93903 
410 1 2.04083 28.57158 46.93903 
411 1 2.04083 30.61241 44.89820 
412 1 0.00000 28.57158 48.97986 
413 1 0.00000 30.61241 51.02069 
414 1 2.04083 28.57158 51.02069 
415 1 2.04083 30.61241 48.97986 
416 1 0.00000 32.65324 0.00000 
417 1 0.00000 34.69407 2.04083 
418 1 2.04083 32.65324 2.04083 
419 1 2.04083 34.69407 0.00000 
420 1 0.00000 32.65324 4.08165 
421 1 0.00000 34.69407 6.12248 
422 1 2.04083 32.65324 6.12248 
423 1 2.04083 34.69407 4.08165 
424 1 0.00000 32.65324 8.16331 
425 1 0.00000 34.69407 10.20414 
426 1 2.04083 32.65324 10.20414 
427 1 2.04083 34.69407 8.16331 
428 1 0.00000 32.65324 12.24496 
429 1 0.00000 34.69407 14.28579 
430 1 2.04083 32.65324 14.28579 
431 1 2.04083 34.69407 12.24496 
432 1 0.00000 32.65324 16.32662 
433 1 0.00000 34.69407 18.36745 
434 1 2.04083 32.65324 18.36745 
435 1 2.04083 34.69407 16.32662 
436 1 0.00000 32.65324 20.40827 
437 1 0.00000 34.69407 22.44910 
438 1 2.04083 32.65324 22.44910 
439 1 2.04083 34.69407 20.40827 
440 1 0.00000 32.65324 24.48993 
441 1 0.00000 34.69407 26.53076 
442 1 2.04083 32.65324 26.53076 
443 1 2.04083 34.69407 24.48993 
444 1 0.00000 32.65324 28.57158 
445 1 0.00000 34.69407 30.61241 
446 1 2.04083 32.65324 30.61241 
447 1 2.04083 34.69407 28.57158 
448 1 0.00000 32.65324 32.65324 
449 1 0.00000 34.69407 34.69407 
450 1 2.04083 32.65324 34.69407 
451 1 2.04083 34.69407 32.65324 
452 1 0.00000 32.65324 36.73489 
453 1 0.00000 34.69407 38.77572 
454 1 2.04083 32.65324 38.77572 
455 1 2.04083 34.69407 36.73489 
456 1 0.00000 32.65324 40.81655 
457 1 0.00000 34.69407 42.85738 
458 1 2.04083 32.65324 42.85738 
459 1 2.04083 34.69407 40.81655 
460 1 0.00000 32.65324 44.89820 
461 1 0.00000 34.69407 46.93903 
462 1 2.04083 32.65324 46.93903 
463 1 2.04083 34.69407 44.89820 
464 1 0.00000 32.65324 48.97986 
465 1 0.00000 34.69407 51.02069 
466 1 2.04083 32.65324 51.02069 
467 1 2.04083 34.69407 48.97986 
468 1 0.00000 36.73489 0.00000 
469 1 0.00000 38.77572 2.04083 
470 1 2.04083 36.73489 2.04083 
471 1 2.04083 38.77572 0.00000 
472 1 0.00000 36.73489 4.08165 
473 1 0.00000 38.77572 6.12248 
474 1 2.04083 36.73489 6.12248 
475 1 2.04083 38.77572 4.08165 
476 1 0.00000 36.73489 8.16331 
477 1 0.00000 38.77572 10.20414 
478 1 2.04083 36.73489 10.20414 
479 1 2.04083 38.77572 8.16331 
480 1 0.00000 36.73489 12.24496 
481 1 0.00000 38.77572 14.28579 
482 1 2.04083 36.73489 14.28579 
483 1 2.04083 38.77572 12.24496 
484 1 0.00000 36.73489 16.32662 
485 1 0.00000 38.77572 18.36745 
486 1 2.04083 36.73489 18.36745 
487 1 2.04083 38.77572 16.32662 
488 1 0.00000 36.73489 20.40827 
489 1 0.00000 38.77572 22.44910 
490 1 2.04083 36.73489 22.44910 
491 1 2.04083 38.77572 20.40827 
492 1 0.00000 36.73489 24.48993 
493 1 0.00000 38.77572 26.53076 
494 1 2.04083 36.73489 26.53076 
495 1 2.04083 38.77572 24.48993 
496 1 0.00000 36.73489 28.57158 
497 1 0.00000 38.77572 30.61241 
498 1 2.04083 36.73489 30.61241 
499 1 2.04083 38.77572 28.57158 
500 1 0.00000 36.73489 32.65324 
501 1 0.00000 38.77572 34.69407 
502 1 2.04083 36.73489 34.69407 
503 1 2.04083 38.77572 32.65324 
504 1 0.00000 36.73489 36.73489 
505 1 0.00000 38.77572 38.77572 
506 1 2.04083 36.73489 38.77572 
507 1 2.04083 38.77572 36.73489 
508 1 0.00000 36.73489 40.81655 
509 1 0.00000 38.77572 42.85738 
510 1 2.04083 36.73489 42.85738 
511 1 2.04083 38.77572 40.81655 
512 1 0.00000 36.73489 44.89820 
513 1 0.00000 38.77572 46.93903 
514 1 2.04083 36.73489 46.93903 
515 1 2.04083 38.77572 44.89820 
516 1 0.00000 36.73489 48.97986 
517 1 0.00000 38.77572 51.02069 
518 1 2.04083 36.73489 51.02069 
519 1 2.04083 38.77572 48.97986 
520 1 0.00000 40.81655 0.00000 
521 1 0.00000 42.85738 2.04083 
522 1 2.04083 40.81655 2.04083 
523 1 2.04083 42.85738 0.00000 
524 1 0.00000 40.81655 4.08165 
525 1 0.00000 42.85738 6.12248 
526 1 2.04083 40.81655 6.12248 
527 1 2.04083 42.85738 4.08165 
528 1 0.00000 40.81655 8.16331 
529 1 0.00000 42.85738 10.20414 
530 1 2.04083 40.81655 10.20414 
531 1 2.04083 42.85738 8.16331 
532 1 0.00000 40.81655 12.24496 
533 1 0.00000 42.85738 14.28579 
534 1 2.04083 40.81655 14.28579 
535 1 2.04083 42.85738 12.24496 
536 1 0.00000 40.81655 16.32662 
537 1 0.00000 42.85738 18.36745 
538 1 2.04083 40.81655 18.36745 
539 1 2.04083 42.85738 16.32662 
540 1 0.00000 40.81655 20.40827 
541 1 0.00000 42.85738 22.44910 
542 1 2.04083 40.81655 22.44910 
543 1 2.04083 42.85738 20.40827 
544 1 0.00000 40.81655 24.48993 
545 1 0.00000 42.85738 26.53076 
546 1 2.04083 40.81655 26.53076 
547 1 2.04083 42.85738 24.48993 
548 1 0.00000 40.81655 28.57158 
549 1 0.00000 42.85738 30.61241 
550 1 2.04083 40.81655 30.61241 
551 1 2.04083 42.85738 28.57158 
552 1 0.00000 40.81655 32.65324 
553 1 0.00000 42.85738 34.69407 
554 1 2.04083 40.81655 34.69407 
555 1 2.04083 42.85738 32.65324 
556 1 0.00000 40.81655 36.73489 
557 1 0.00000 42.85738 38.77572 
558 1 2.04083 40.81655 38.77572 
559 1 2.04083 42.85738 36.73489 
560 1 0.00000 40.81655 40.81655 
561 1 0.00000 42.85738 42.85738 
562 1 2.04083 40.81655 42.85738 
563 1 2.04083 42.85738 40.81655 
564 1 0.00000 40.81655 44.89820 
565 1 0.00000 42.85738 46.93903 
566 1 2.04083 40.81655 46.93903 
567 1 2.04083 42.85738 44.89820 
568 1 0.00000 40.81655 48.97986 
569 1 0.00000 42.85738 51.02069 
570 1 2.04083 40.81655 51.02069 
571 1 2.04083 42.85738 48.97986 
572 1 0.00000 44.89820 0.00000 
573 1 0.00000 46.93903 2.04083 
574 1 2.04083 44.89820 2.04083 
575 1 2.04083 46.93903 0.00000 
576 1 0.00000 44.89820 4.08165 
577 1 0.00000 46.93903 6.12248 
578 1 2.04083 44.89820 6.12248 
579 1 2.04083 46.93903 4.08165 
580 1 0.00000 44.89820 8.16331 
581 1 0.00000 46.93903 10.20414 
582 1 2.04083 44.89820 10.20414 
583 1 2.04083 46.93903 8.16331 
584 1 0.00000 44.89820 12.24496 
585 1 0.00000 46.93903 14.28579 
586 1 2.04083 44.89820 14.28579 
587 1 2.04083 46.93903 12.24496 
588 1 0.00000 44.89820 16.32662 
589 1 0.00000 46.93903 18.36745 
590 1 2.04083 44.89820 18.36745 
591 1 2.04083 46.93903 16.32662 
592 1 0.00000 44.89820 20.40827 
593 1 0.00000 46.93903 22.44910 
594 1 2.04083 44.89820 22.44910 
595 1 2.04083 46.93903 20.40827 
596 1 0.00000 44.89820 24.48993 
597 1 0.00000 46.93903 26.53076 
598 1 2.04083 44.89820 26.53076 
599 1 2.04083 46.93903 24.48993 
600 1 0.00000 44.89820 28.57158 
601 1 0.00000 46.93903 30.61241 
602 1 2.04083 44.89820 30.61241 
603 1 2.04083 46.93903 28.57158 
604 1 0.00000 44.89820 32.65324 
605 1 0.00000 46.93903 34.69407 
606 1 2.04083 44.89820 34.69407 
607 1 2.04083 46.93903 32.65324 
608 1 0.00000 44.89820 36.73489 
609 1 0.00000 46.93903 38.77572 
610 1 2.04083 44.89820 38.77572 
611 1 2.04083 46.93903 36.73489 
612 1 0.00000 44.89820 40.81655 
613 1 0.00000 46.93903 42.85738 
614 1 2.04083 44.89820 42.85738 
615 1 2.04083 46.93903 40.81655 
616 1 0.00000 44.89820 44.89820 
617 1 0.00000 46.93903 46.93903 
618 1 2.04083 44.89820 46.93903 
619 1 2.04083 46.93903 44.89820 
620 1 0.00000 44.89820 48.97986 
621 1 0.00000 46.93903 51.02069 
622 1 2.04083 44.89820 51.02069 
623 1 2.04083 46.93903 48.97986 
624 1 0.00000 48.97986 0.00000 
625 1 0.00000 51.02069 2.04083 
626 1 2.04083 48.97986 2.04083 
627 1 2.04083 51.02069 0.00000 
628 1 0.00000 48.97986 4.08165 
629 1 0.00000 51.02069 6.12248 
630 1 2.04083 48.97986 6.12248 
631 1 2.04083 51.02069 4.08165 
632 1 0.00000 48.97986 8.16331 
633 1 0.00000 51.02069 10.20414 
634 1 2.04083 48.97986 10.20414 
635 1 2.04083 51.02069 8.16331 
636 1 0.00000 48.97986 12.24496 
637 1 0.00000 51.02069 14.28579 
638 1 2.04083 48.97986 14.28579 
639 1 2.04083 51.02069 12.24496 
640 1 0.00000 48.97986 16.32662 
641 1 0.00000 51.02069 18.36745 
642 1 2.04083 48.97986 18.36745 
643 1 2.04083 51.02069 16.32662 
644 1 0.00000 48.97986 20.40827 
645 1 0.00000 51.02069 22.44910 
646 1 2.04083 48.97986 22.44910 
647 1 2.04083 51.02069 20.40827 
648 1 0.00000 48.97986 24.48993 
649 1 0.00000 51.02069 26.53076 
650 1 2.04083 48.97986 26.53076 
651 1 2.04083 51.02069 24.48993 
652 1 0.00000 48.97986 28.57158 
653 1 0.00000 51.02069 30.61241 
654 1 2.04083 48.97986 30.61241 
655 1 2.04083 51.02069 28.57158 
656 1 0.00000 48.97986 32.65324 
657 1 0.00000 51.02069 34.69407 
658 1 2.04083 48.97986 34.69407 
659 1 2.04083 51.02069 32.65324 
660 1 0.00000 48.97986 36.73489 
661 1 0.00000 51.02069 38.77572 
662 1 2.04083 48.97986 38.77572 
663 1 2.04083 51.02069 36.73489 
664 1 0.00000 48.97986 40.81655 
665 1 0.00000 51.02069 42.85738 
666 1 2.04083 48.97986 42.85738 
667 1 2.04083 51.02069 40.81655 
668 1 0.00000 48.97986 44.89820 
669 1 0.00000 51.02069 46.93903 
670 1 2.04083 48.97986 46.93903 
671 1 2.04083 51.02069 44.89820 
672 1 0.00000 48.97986 48.97986 
673 1 0.00000 51.02069 51.02069 
674 1 2.04083 48.97986 51.02069 
675 1 2.04083 51.02069 48.97986 
676 1 4.08165 0.00000 0.00000 
677 1 4.08165 2.04083 2.04083 
678 1 6.12248 0.00000 2.04083 
679 1 6.12248 2.04083 0.00000 
680 1 4.08165 0.00000 4.08165 
681 1 4.08165 2.04083 6.12248 
682 1 6.12248 0.00000 6.12248 
683 1 6.12248 2.04083 4.08165 
684 1 4.08165 0.00000 8.16331 
685 1 4.08165 2.04083 10.20414 
686 1 6.12248 0.00000 10.20414 
687 1 6.12248 2.04083 8.16331 
688 1 4.08165 0.00000 12.24496 
689 1 4.08165 2.04083 14.28579 
690 1 6.12248 0.00000 14.28579 
691 1 6.12248 2.04083 12.24496 
692 1 4.08165 0.00000 16.32662 
693 1 4.08165 2.04083 18.36745 
694 1 6.12248 0.00000 18.36745 
695 1 6.12248 2.04083 16.32662 
696 1 4.08165 0.00000 20.40827 
697 1 4.08165 2.04083 22.44910 
698 1 6.12248 0.00000 22.44910 
699 1 6.12248 2.04083 20.40827 
700 1 4.08165 0.00000 24.48993 
701 1 4.08165 2.04083 26.53076 
702 1 6.12248 0.00000 26.53076 
703 1 6.12248 2.04083 24.48993 
704 1 4.08165 0.00000 28.57158 
705 1 4.08165 2.04083 30.61241 
706 1 6.12248 0.00000 30.61241 
707 1 6.12248 2.04083 28.57158 
708 1 4.08165 0.00000 32.65324 
709 1 4.08165 2.04083 34.69407 
710 1 6.12248 0.00000 34.69407 
711 1 6.12248 2.04083 32.65324 
712 1 4.08165 0.00000 36.73489 
713 1 4.08165 2.04083 38.77572 
714 1 6.12248 0.00000 38.77572 
715 1 6.12248 2.04083 36.73489 
716 1 4.08165 0.00000 40.81655 
717 1 4.08165 2.04083 42.85738 
718 1 6.12248 0.00000 42.85738 
719 1 6.12248 2.04083 40.81655 
720 1 4.08165 0.00000 44.89820 
721 1 4.08165 2.04083 46.93903 
722 1 6.12248 0.00000 46.93903 
723 1 6.12248 2.04083 44.89820 
724 1 4.08165 0.00000 48.97986 
725 1 4.08165 2.04083 51.02069 
726 1 6.12248 0.00000 51.02069 
727 1 6.12248 2.04083 48.97986 
728 1 4.08165 4.08165 0.00000 
729 1 4.08165 6.12248 2.04083 
730 1 6.12248 4.08165 2.04083 
731 1 6.12248 6.12248 0.00000 
732 1 4.08165 4.08165 4.08165 
733 1 4.08165 6.12248 6.12248 
734 1 6.12248 4.08165 6.12248 
735 1 6.12248 6.12248 4.08165 
736 1 4.08165 4.08165 8.16331 
737 1 4.08165 6.12248 10.20414 
738 1 6.12248 4.08165 10.20414 
739 1 6.12248 6.12248 8.16331 
740 1 4.08165 4.08165 12.24496 
741 1 4.08165 6.12248 14.28579 
742 1 6.12248 4.08165 14.28579 
743 1 6.12248 6.12248 12.24496 
744 1 4.08165 4.08165 16.32662 
745 1 4.08165 6.12248 18.36745 
746 1 6.12248 4.08165 18.36745 
747 1 6.12248 6.12248 16.32662 
748 1 4.08165 4.08165 20.40827 
749 1 4.08165 6.12248 22.44910 
750 1 6.12248 4.08165 22.44910 
751 1 6.12248 6.12248 20.40827 
752 1 4.08165 4.08165 24.48993 
753 1 4.08165 6.12248 26.53076 
754 1 6.12248 4.08165 26.53076 
755 1 6.12248 6.12248 24.48993 
756 1 4.08165 4.08165 28.57158 
757 1 4.08165 6.12248 30.61241 
758 1 6.12248 4.08165 30.61241 
759 1 6.12248 6.12248 28.57158 
760 1 4.08165 4.08165 32.65324 
761 1 4.08165 6.12248 34.69407 
762 1 6.12248 4.08165 34.69407 
763 1 6.12248 6.12248 32.65324 
764 1 4.08165 4.08165 36.73489 
765 1 4.08165 6.12248 38.77572 
766 1 6.12248 4.08165 38.77572 
767 1 6.12248 6.12248 36.73489 
768 1 4.08165 4.08165 40.81655 
769 1 4.08165 6.12248 42.85738 
770 1 6.12248 4.08165 42.85738 
771 1 6.12248 6.12248 40.81655 
772 1 4.08165 4.08165 44.89820 
773 1 4.08165 6.12248 46.93903 
774 1 6.12248 4.08165 46.93903 
775 1 6.12248 6.12248 44.89820 
776 1 4.08165 4.08165 48.97986 
777 1 4.08165 6.12248 51.02069 
778 1 6.12248 4.08165 51.02069 
779 1 6.12248 6.12248 48.97986 
780 1 4.08165 8.16331 0.00000 
781 1 4.08165 10.20414 2.04083 
782 1 6.12248 8.16331 2.04083 
783 1 6.12248 10.20414 0.00000 
784 1 4.08165 8.16331 4.08165 
785 1 4.08165 10.20414 6.12248 
786 1 6.12248 8.16331 6.12248 
787 1 6.12248 10.20414 4.08165 
788 1 4.08165 8.16331 8.16331 
789 1 4.08165 10.20414 10.20414 
790 1 6.12248 8.16331 10.20414 
791 1 6.12248 10.20414 8.16331 
792 1 4.08165 8.16331 12.24496 
793 1 4.08165 10.20414 14.28579 
794 1 6.12248 8.16331 14.28579 
795 1 6.12248 10.20414 12.24496 
796 1 4.08165 8.16331 16.32662 
797 1 4.08165 10.20414 18.36745 
798 1 6.12248 8.16331 18.36745 
799 1 6.12248 10.20414 16.32662 
800 1 4.08165 8.16331 20.40827 
801 1 4.08165 10.20414 22.44910 
802 1 6.12248 8.16331 22.44910 
803 1 6.12248 10.20414 20.40827 
804 1 4.08165 8.16331 24.48993 
805 1 4.08165 10.20414 26.53076 
806 1 6.12248 8.16331 26.53076 
807 1 6.12248 10.20414 24.48993 
808 1 4.08165 8.16331 28.57158 
809 1 4.08165 10.20414 30.61241 
810 1 6.12248 8.16331 30.61241 
811 1 6.12248 10.20414 28.57158 
812 1 4.08165 8.16331 32.65324 
813 1 4.08165 10.20414 34.69407 
814 1 6.12248 8.16331 34.69407 
815 1 6.12248 10.20414 32.65324 
816 1 4.08165 8.16331 36.73489 
817 1 4.08165 10.20414 38.77572 
818 1 6.12248 8.16331 38.77572 
819 1 6.12248 10.20414 36.73489 
820 1 4.08165 8.16331 40.81655 
821 1 4.08165 10.20414 42.85738 
822 1 6.12248 8.16331 42.85738 
823 1 6.12248 10.20414 40.81655 
824 1 4.08165 8.16331 44.89820 
825 1 4.08165 10.20414 46.93903 
826 1 6.12248 8.16331 46.93903 
827 1 6.12248 10.20414 44.89820 
828 1 4.08165 8.16331 48.97986 
829 1 4.08165 10.20414 51.02069 
830 1 6.12248 8.16331 51.02069 
831 1 6.12248 10.20414 48.97986 
832 1 4.08165 12.24496 0.00000 
833 1 4.08165 14.28579 2.04083 
834 1 6.12248 12.24496 2.04083 
835 1 6.12248 14.28579 0.00000 
836 1 4.08165 12.24496 4.08165 
837 1 4.08165 14.28579 6.12248 
838 1 6.12248 12.24496 6.12248 
839 1 6.12248 14.28579 4.08165 
840 1 4.08165 12.24496 8.16331 
841 1 4.08165 14.28579 10.20414 
842 1 6.12248 12.24496 10.20414 
843 1 6.12248 14.28579 8.16331 
844 1 4.08165 12.24496 12.24496 
845 1 4.08165 14.28579 14.28579 
846 1 6.12248 12.24496 14.28579 
847 1 6.12248 14.28579 12.24496 
848 1 4.08165 12.24496 16.32662 
849 1 4.08165 14.28579 18.36745 
850 1 6.12248 12.24496 18.36745 
851 1 6.12248 14.28579 16.32662 
852 1 4.08165 12.24496 20.40827 
853 1 4.08165 14.28579 22.44910 
854 1 6.12248 12.24496 22.44910 
855 1 6.12248 14.28579 20.40827 
856 1 4.08165 12.24496 24.48993 
857 1 4.08165 14.28579 26.53076 
858 1 6.12248 12.24496 26.53076 
859 1 6.12248 14.28579 24.48993 
860 1 4.08165 12.24496 28.57158 
861 1 4.08165 14.28579 30.61241 
862 1 6.12248 12.24496 30.61241 
863 1 6.12248 14.28579 28.57158 
864 1 4.08165 12.24496 32.65324 
865 1 4.08165 14.28579 34.69407 
866 1 6.12248 12.24496 34.69407 
867 1 6.12248 14.28579 32.65324 
868 1 4.08165 12.24496 36.73489 
869 1 4.08165 14.28579 38.77572 
870 1 6.12248 12.24496 38.77572 
871 1 6.12248 14.28579 36.73489 
872 1 4.08165 12.24496 40.81655 
873 1 4.08165 14.28579 42.85738 
874 1 6.12248 12.24496 42.85738 
875 1 6.12248 14.28579 40.81655 
876 1 4.08165 12.24496 44.89820 
877 1 4.08165 14.28579 46.93903 
878 1 6.12248 12.24496 46.93903 
879 1 6.12248 14.28579 44.89820 
880 1 4.08165 12.24496 48.97986 
881 1 4.08165 14.28579 51.02069 
882 1 6.12248 12.24496 51.02069 
883 1 6.12248 14.28579 48.97986 
884 1 4.08165 16.32662 0.00000 
885 1 4.08165 18.36745 2.04083 
886 1 6.12248 16.32662 2.04083 
887 1 6.12248 18.36745 0.00000 
888 1 4.08165 16.32662 4.08165 
889 1 4.08165 18.36745 6.12248 
890 1 6.12248 16.32662 6.12248 
891 1 6.12248 18.36745 4.08165 
892 1 4.08165 16.32662 8.16331 
893 1 4.08165 18.36745 10.20414 
894 1 6.12248 16.32662 10.20414 
895 1 6.12248 18.36745 8.16331 
896 1 4.08165 16.32662 12.24496 
897 1 4.08165 18.36745 14.28579 
898 1 6.12248 16.32662 14.28579 
899 1 6.12248 18.36745 12.24496 
900 1 4.08165 16.32662 16.32662 
901 1 4.08165 18.36745 18.36745 
902 1 6.12248 16.32662 18.36745 
903 1 6.12248 18.36745 16.32662 
904 1 4.08165 16.32662 20.40827 
905 1 4.08165 18.36745 22.44910 
906 1 6.12248 16.32662 22.44910 
907 1 6.12248 18.36745 20.40827 
908 1 4.08165 16.32662 24.48993 
909 1 4.08165 18.36745 26.53076 
910 1 6.12248 16.32662 26.53076 
911 1 6.12248 18.36745 24.48993 
912 1 4.08165 16.32662 28.57158 
913 1 4.08165 18.36745 30.61241 
914 1 6.12248 16.32662 30.61241 
915 1 6.12248 18.36745 28.57158 
916 1 4.08165 16.32662 32.65324 
917 1 4.08165 18.36745 34.69407 
918 1 6.12248 16.32662 34.69407 
919 1 6.12248 18.36745 32.65324 