LAMMPS (22 Jul 2025 - Update 1)
Reading data file ...
  orthogonal box = (0 0 0) to (53.061514 53.061514 53.061514)
  1 by 1 by 1 MPI processor grid
  reading atoms ...
  8787 atoms
  read_data CPU = 0.025 seconds
Reading eam/alloy potential file /home/bond/Software/LAMMPS/lammps-22Jul2025/potentials/Al_zhou.eam.alloy with DATE: 2007-10-12
WARNING: No fixes with time integration, atoms won't move
For more information see https://docs.lammps.org/err0028 (../verlet.cpp:60)
Neighbor list info ...
  update: every = 1 steps, delay = 0 steps, check = yes
  max neighbors/atom: 2000, page size: 100000
  master list distance cutoff = 12.1025
  ghost atom cutoff = 12.1025
  binsize = 6.05125, bins = 9 9 9
  1 neighbor lists, perpetual/occasional/extra = 1 0 0
  (1) pair eam/alloy, perpetual
      attributes: half, newton on
      pair build: half/bin/atomonly/newton
      stencil: half/bin/3d
      bin: standard
Setting up Verlet run ...
  Unit style    : metal
  Current step  : 0
  Time step     : 0.001
Per MPI rank memory allocation (min/avg/max) = 13.86 | 13.86 | 13.86 Mbytes
   Step         PotEng           Lx             Ly             Lz           Press           Pxx            Pyy            Pzz      
         0  -31456.641      53.061514      53.061514      53.061514     -32.40175      -32.401758     -32.401733     -32.401758    
Loop time of 1.681e-06 on 1 procs for 0 steps with 8787 atoms

178.5% CPU use with 1 MPI tasks x no OpenMP threads

MPI task timing breakdown:
Section |  min time  |  avg time  |  max time  |%varavg| %total
---------------------------------------------------------------
Pair    | 0          | 0          | 0          |   0.0 |  0.00
Neigh   | 0          | 0          | 0          |   0.0 |  0.00
Comm    | 0          | 0          | 0          |   0.0 |  0.00
Output  | 0          | 0          | 0          |   0.0 |  0.00
Modify  | 0          | 0          | 0          |   0.0 |  0.00
Other   |            | 1.681e-06  |            |       |100.00

Nlocal:           8787 ave        8787 max        8787 min
Histogram: 1 0 0 0 0 0 0 0 0 0
Nghost:          16531 ave       16531 max       16531 min
Histogram: 1 0 0 0 0 0 0 0 0 0
Neighs:     1.8802e+06 ave  1.8802e+06 max  1.8802e+06 min
Histogram: 1 0 0 0 0 0 0 0 0 0

Total # of neighbors = 1880204
Ave neighs/atom = 213.97565
Neighbor list builds = 0
Dangerous builds = 0
Setting up cg style minimization ...
  Unit style    : metal
  Current step  : 0
WARNING: Energy due to 1 extra global DOFs will be included in minimizer energies
 (../min.cpp:222)
Per MPI rank memory allocation (min/avg/max) = 16.11 | 16.11 | 16.11 Mbytes
   Step         PotEng           Lx             Ly             Lz           Press           Pxx            Pyy            Pzz      
         0  -31456.641      53.061514      53.061514      53.061514     -32.40175      -32.401758     -32.401733     -32.401758    
         5  -31456.718      53.060809      53.060809      53.060809     -0.24662884    -0.24663354    -0.24661945    -0.24663354   
Loop time of 0.946235 on 1 procs for 5 steps with 8787 atoms

100.0% CPU use with 1 MPI tasks x no OpenMP threads

Minimization stats:
  Stopping criterion = energy tolerance
  Energy initial, next-to-last, final = 
     -31456.6411909301  -31456.7184567509  -31456.7184574191
  Force two-norm initial, final = 9.0977877 0.27951466
  Force max component initial, final = 9.063966 0.068989362
  Final line search alpha, max atom move = 0.00071288838 4.9181715e-05
  Iterations, force evaluations = 5 10

MPI task timing breakdown:
Section |  min time  |  avg time  |  max time  |%varavg| %total
---------------------------------------------------------------
Pair    | 0.93703    | 0.93703    | 0.93703    |   0.0 | 99.03
Neigh   | 0          | 0          | 0          |   0.0 |  0.00
Comm    | 0.0013432  | 0.0013432  | 0.0013432  |   0.0 |  0.14
Output  | 0          | 0          | 0          |   0.0 |  0.00
Modify  | 0          | 0          | 0          |   0.0 |  0.00
Other   |            | 0.007862   |            |       |  0.83

Nlocal:           8787 ave        8787 max        8787 min
Histogram: 1 0 0 0 0 0 0 0 0 0
Nghost:          16531 ave       16531 max       16531 min
Histogram: 1 0 0 0 0 0 0 0 0 0
Neighs:     1.8802e+06 ave  1.8802e+06 max  1.8802e+06 min
Histogram: 1 0 0 0 0 0 0 0 0 0

Total # of neighbors = 1880204
Ave neighs/atom = 213.97565
Neighbor list builds = 0
Dangerous builds = 0
Total energy (eV) = -31456.7184574191
Number of atoms = 8787
Lattice constant (Angstoms) = 53.060808895741
Total wall time: 0:00:01
