
     Program PWSCF v.7.4.1 starts on 20Oct2025 at 23:17:47 

     This program is part of the open-source Quantum ESPRESSO suite
     for quantum simulation of materials; please cite
         "P. Giannozzi et al., J. Phys.:Condens. Matter 21 395502 (2009);
         "P. Giannozzi et al., J. Phys.:Condens. Matter 29 465901 (2017);
         "P. Giannozzi et al., J. Chem. Phys. 152 154105 (2020);
          URL http://www.quantum-espresso.org", 
     in publications or presentations arising from this work. More details at
     http://www.quantum-espresso.org/quote

     Parallel version (MPI), running on     2 processors

     MPI processes distributed on     1 nodes
     239 MiB available memory on the printing compute node when the environment starts

     Waiting for input...
     Reading input from standard input
Warning: card &CELL ignored
Warning: card / ignored

     Current dimensions of program PWSCF are:
     Max number of different atomic species (ntypx) = 10
     Max number of k-points (npk) =  40000
     Max angular momentum in pseudopotentials (lmaxx) =  4
     file Fe.pbe-nd-rrkjus.UPF: wavefunction(s)  4S renormalized
     Message from routine find_sym:
     Not a group! Trying with lower acceptance parameter...
     Message from routine find_sym:
     Symmetry operations form a group
     Message from routine setup:
     using ibrav=0 with symmetry is DISCOURAGED, use correct ibrav instead

     R & G space division:  proc/nbgrp/npool/nimage =       2
     Subspace diagonalization in iterative solution of the eigenvalue problem:
     a serial algorithm will be used


     Parallelization info
     --------------------
     sticks:   dense  smooth     PW     G-vecs:    dense   smooth      PW
     Min         312     126     42                10802     2764     524
     Max         313     127     43                10803     2765     527
     Sum         625     253     85                21605     5529    1051

     Using Slab Decomposition



     bravais-lattice index     =            0
     lattice parameter (alat)  =       5.4802  a.u.
     unit-cell volume          =     247.5831 (a.u.)^3
     number of atoms/cell      =            2
     number of atomic types    =            1
     number of electrons       =        16.00
     number of Kohn-Sham states=           12
     kinetic-energy cutoff     =      30.0000  Ry
     charge density cutoff     =     300.0000  Ry
     scf convergence threshold =      1.0E-07
     mixing beta               =       0.5000
     number of iterations used =            8  plain     mixing
     Exchange-correlation=  SLA  PW   PBE  PBE
                           (   1   4   3   4   0   0   0)

     celldm(1)=   5.480206  celldm(2)=   0.000000  celldm(3)=   0.000000
     celldm(4)=   0.000000  celldm(5)=   0.000000  celldm(6)=   0.000000

     crystal axes: (cart. coord. in units of alat)
               a(1) = (   1.000000   0.000000   0.000000 )  
               a(2) = (  -0.500000   0.866025   0.000000 )  
               a(3) = (   0.000000   0.000000   1.737000 )  

     reciprocal axes: (cart. coord. in units 2 pi/alat)
               b(1) = (  1.000000  0.577350 -0.000000 )  
               b(2) = (  0.000000  1.154701  0.000000 )  
               b(3) = (  0.000000 -0.000000  0.575705 )  


     PseudoPot. # 1 for Fe read from file:
     /home/bond/Software/QE/qe-7.4.1/pseudo/Fe.pbe-nd-rrkjus.UPF
     MD5 check sum: 398036227a04b607635f6f5e8dfd8242
     Pseudo is Ultrasoft + core correction, Zval =  8.0
     Generated by new atomic code, or converted to UPF format
     Using radial grid of  957 points,  6 beta functions with: 
                l(1) =   0
                l(2) =   0
                l(3) =   1
                l(4) =   1
                l(5) =   2
                l(6) =   2
     Q(r) pseudized with 0 coefficients 


     atomic species   valence    mass     pseudopotential
     Fe                8.00    55.84500     Fe( 1.00)

     Starting magnetic structure 
     atomic species   magnetization
     Fe              0.700

      4 Sym. Ops. (no inversion) found



   Cartesian axes

     site n.     atom                  positions (alat units)
         1        Fe     tau(   1) = (   0.0000000   0.0000000   0.0000000  )
         2        Fe     tau(   2) = (   0.0000000   0.5773517   0.8685000  )

     number of k points=   228  Methfessel-Paxton smearing, width (Ry)=  0.0200

     Number of k-points >= 100: set verbosity='high' to print them.

     Dense  grid:    21605 G-vectors     FFT dimensions: (  32,  32,  54)

     Smooth grid:     5529 G-vectors     FFT dimensions: (  20,  20,  36)

     Estimated max dynamical RAM per process >      74.34 MB

     Estimated total dynamical RAM >     148.68 MB

     Check: negative core charge=   -0.000019
     Generating pointlists ...
     new r_m :   0.4125 (alat units)  2.2606 (a.u.) for type    1

     Initial potential from superposition of free atoms

     starting charge      15.9987, renormalised to      16.0000
     Starting wfcs are   12 randomized atomic wfcs

     total cpu time spent up to now is        3.6 secs

     Self-consistent Calculation

     iteration #  1     ecut=    30.00 Ry     beta= 0.50
     Davidson diagonalization with overlap
     ethr =  1.00E-02,  avg # of iterations =  3.8

     total cpu time spent up to now is       10.1 secs

     total energy              =    -111.19517675 Ry
     estimated scf accuracy    <       0.66303288 Ry

     total magnetization       =     7.52 Bohr mag/cell
     absolute magnetization    =     7.53 Bohr mag/cell

     iteration #  2     ecut=    30.00 Ry     beta= 0.50
     Davidson diagonalization with overlap
     ethr =  4.14E-03,  avg # of iterations =  2.6

     total cpu time spent up to now is       15.5 secs

     total energy              =    -111.42353941 Ry
     estimated scf accuracy    <       0.18071195 Ry

     total magnetization       =     6.34 Bohr mag/cell
     absolute magnetization    =     6.37 Bohr mag/cell

     iteration #  3     ecut=    30.00 Ry     beta= 0.50
     Davidson diagonalization with overlap
     ethr =  1.13E-03,  avg # of iterations =  1.7

     total cpu time spent up to now is       19.6 secs

     total energy              =    -111.46927612 Ry
     estimated scf accuracy    <       0.01197176 Ry

     total magnetization       =     6.48 Bohr mag/cell
     absolute magnetization    =     6.56 Bohr mag/cell

     iteration #  4     ecut=    30.00 Ry     beta= 0.50
     Davidson diagonalization with overlap
     ethr =  7.48E-05,  avg # of iterations =  3.6

     total cpu time spent up to now is       24.7 secs

     total energy              =    -111.47423814 Ry
     estimated scf accuracy    <       0.12613466 Ry

     total magnetization       =     6.29 Bohr mag/cell
     absolute magnetization    =     6.56 Bohr mag/cell

     iteration #  5     ecut=    30.00 Ry     beta= 0.50
     Davidson diagonalization with overlap
     ethr =  7.48E-05,  avg # of iterations =  1.1

     total cpu time spent up to now is       28.4 secs

     total energy              =    -111.47618987 Ry
     estimated scf accuracy    <       0.00671489 Ry

     total magnetization       =     6.27 Bohr mag/cell
     absolute magnetization    =     6.55 Bohr mag/cell

     iteration #  6     ecut=    30.00 Ry     beta= 0.50
     Davidson diagonalization with overlap
     ethr =  4.20E-05,  avg # of iterations =  2.7

     total cpu time spent up to now is       33.4 secs

     total energy              =    -111.47926560 Ry
     estimated scf accuracy    <       0.00337757 Ry

     total magnetization       =     6.06 Bohr mag/cell
     absolute magnetization    =     6.44 Bohr mag/cell

     iteration #  7     ecut=    30.00 Ry     beta= 0.50
     Davidson diagonalization with overlap
     ethr =  2.11E-05,  avg # of iterations =  1.3

     total cpu time spent up to now is       37.1 secs

     total energy              =    -111.47962348 Ry
     estimated scf accuracy    <       0.00026102 Ry

     total magnetization       =     6.08 Bohr mag/cell
     absolute magnetization    =     6.48 Bohr mag/cell

     iteration #  8     ecut=    30.00 Ry     beta= 0.50
     Davidson diagonalization with overlap
     ethr =  1.63E-06,  avg # of iterations =  2.9

     total cpu time spent up to now is       41.8 secs

     total energy              =    -111.47968978 Ry
     estimated scf accuracy    <       0.00004710 Ry

     total magnetization       =     6.08 Bohr mag/cell
     absolute magnetization    =     6.50 Bohr mag/cell

     iteration #  9     ecut=    30.00 Ry     beta= 0.50
     Davidson diagonalization with overlap
     c_bands:  1 eigenvalues not converged
     ethr =  2.94E-07,  avg # of iterations =  3.2

     total cpu time spent up to now is       46.5 secs

     total energy              =    -111.47970876 Ry
     estimated scf accuracy    <       0.00000366 Ry

     total magnetization       =     6.08 Bohr mag/cell
     absolute magnetization    =     6.50 Bohr mag/cell

     iteration # 10     ecut=    30.00 Ry     beta= 0.50
     Davidson diagonalization with overlap
     ethr =  2.28E-08,  avg # of iterations =  6.2

     total cpu time spent up to now is       54.3 secs

     total energy              =    -111.47971474 Ry
     estimated scf accuracy    <       0.00000218 Ry

     total magnetization       =     6.08 Bohr mag/cell
     absolute magnetization    =     6.50 Bohr mag/cell

     iteration # 11     ecut=    30.00 Ry     beta= 0.50
     Davidson diagonalization with overlap
     ethr =  1.36E-08,  avg # of iterations =  2.0

     Magnetic moment per site  (integrated on atomic sphere of radius R)
     atom   1 (R=0.412)  charge=  6.7918  magn=  3.1400
     atom   2 (R=0.412)  charge=  6.7914  magn=  3.1401

     total cpu time spent up to now is       58.6 secs

     End of self-consistent calculation

     Number of k-points >= 100: set verbosity='high' to print the bands.

     the Fermi energy is     7.5814 ev

!    total energy              =    -111.47971547 Ry
     estimated scf accuracy    <       0.00000007 Ry
     smearing contrib. (-TS)   =      -0.00115182 Ry
     internal energy E=F+TS    =    -111.47856365 Ry

     The total energy is F=E-TS. E is the sum of the following terms:
     one-electron contribution =      -3.23158964 Ry
     hartree contribution      =      18.50322812 Ry
     xc contribution           =     -52.61384502 Ry
     ewald contribution        =     -74.13635711 Ry

     total magnetization       =     6.09 Bohr mag/cell
     absolute magnetization    =     6.50 Bohr mag/cell

     convergence has been achieved in  11 iterations

     Forces acting on atoms (cartesian axes, Ry/au):

     atom    1 type  1   force =     0.00000000   -0.00000526    0.00000000
     atom    2 type  1   force =     0.00000000    0.00000526    0.00000000

     Total force =     0.000007     Total SCF correction =     0.000011
     SCF correction compared to forces is large: reduce conv_thr to get better values


     Computing stress (Cartesian axis) and pressure

          total   stress  (Ry/bohr**3)                   (kbar)     P=     -248.62
  -0.00171828   0.00000000   0.00000000         -252.77        0.00        0.00
   0.00000000  -0.00171831   0.00000000            0.00     -252.77        0.00
   0.00000000   0.00000000  -0.00163360            0.00        0.00     -240.31

     Message from routine punch:
     Nothing written, as per user request (disk_io='none')

     init_run     :      2.82s CPU      3.28s WALL (       1 calls)
     electrons    :     49.77s CPU     55.06s WALL (       1 calls)
     forces       :      0.36s CPU      0.37s WALL (       1 calls)
     stress       :      1.98s CPU      2.01s WALL (       1 calls)

     Called by init_run:
     wfcinit      :      2.04s CPU      2.33s WALL (       1 calls)
     potinit      :      0.23s CPU      0.27s WALL (       1 calls)
     hinit0       :      0.40s CPU      0.46s WALL (       1 calls)

     Called by electrons:
     c_bands      :     42.66s CPU     47.18s WALL (      11 calls)
     sum_band     :      6.18s CPU      6.92s WALL (      11 calls)
     v_of_rho     :      0.44s CPU      0.47s WALL (      12 calls)
     newd         :      0.56s CPU      0.61s WALL (      12 calls)
     mix_rho      :      0.02s CPU      0.03s WALL (      11 calls)

     Called by c_bands:
     init_us_2    :      1.47s CPU      1.63s WALL (   11400 calls)
     cegterg      :     38.67s CPU     42.86s WALL (    5016 calls)

     Called by *egterg:
     cdiaghg      :      3.74s CPU      4.15s WALL (   19193 calls)
     h_psi        :     30.95s CPU     34.39s WALL (   19649 calls)
     s_psi        :      0.80s CPU      0.89s WALL (   19649 calls)
     g_psi        :      0.19s CPU      0.21s WALL (   14177 calls)

     Called by h_psi:
     h_psi:calbec :      1.87s CPU      2.09s WALL (   19649 calls)
     vloc_psi     :     27.78s CPU     30.87s WALL (   19649 calls)
     add_vuspsi   :      0.94s CPU      1.05s WALL (   19649 calls)

     General routines
     calbec       :      2.91s CPU      3.19s WALL (   32417 calls)
     fft          :      0.32s CPU      0.37s WALL (     338 calls)
     ffts         :      0.17s CPU      0.17s WALL (      46 calls)
     fftw         :     24.73s CPU     27.57s WALL (  392738 calls)
     interpolate  :      0.18s CPU      0.19s WALL (      24 calls)

     Parallel routines

     PWSCF        :     55.21s CPU   1m 1.02s WALL


   This run was terminated on:  23:18:48  20Oct2025            

=------------------------------------------------------------------------------=
   JOB DONE.
=------------------------------------------------------------------------------=
