LAMMPS (22 Jul 2025 - Update 1)
Reading data file ...
  orthogonal box = (0 0 0) to (8.7451919 8.7451919 34.490092)
  1 by 1 by 1 MPI processor grid
  reading atoms ...
  81 atoms
  read_data CPU = 0.001 seconds
WARNING: No fixes with time integration, atoms won't move
For more information see https://docs.lammps.org/err0028 (../verlet.cpp:60)
Generated 0 of 0 mixed pair_coeff terms from geometric mixing rule
Neighbor list info ...
  update: every = 1 steps, delay = 0 steps, check = yes
  max neighbors/atom: 2000, page size: 100000
  master list distance cutoff = 6.5
  ghost atom cutoff = 6.5
  binsize = 3.25, bins = 3 3 11
  1 neighbor lists, perpetual/occasional/extra = 1 0 0
  (1) pair lj/cut, perpetual
      attributes: half, newton on
      pair build: half/bin/atomonly/newton
      stencil: half/bin/3d
      bin: standard
Setting up Verlet run ...
  Unit style    : metal
  Current step  : 0
  Time step     : 0.001
Per MPI rank memory allocation (min/avg/max) = 3.065 | 3.065 | 3.065 Mbytes
   Step         PotEng           Lx             Ly             Lz           Press           Pxx            Pyy            Pzz      
         0  -197.59535      8.7451919      8.7451919      34.490092      0.1185683     -1471.017      -1471.017       2942.3896    
Loop time of 1.682e-06 on 1 procs for 0 steps with 81 atoms

0.0% CPU use with 1 MPI tasks x no OpenMP threads

MPI task timing breakdown:
Section |  min time  |  avg time  |  max time  |%varavg| %total
---------------------------------------------------------------
Pair    | 0          | 0          | 0          |   0.0 |  0.00
Neigh   | 0          | 0          | 0          |   0.0 |  0.00
Comm    | 0          | 0          | 0          |   0.0 |  0.00
Output  | 0          | 0          | 0          |   0.0 |  0.00
Modify  | 0          | 0          | 0          |   0.0 |  0.00
Other   |            | 1.682e-06  |            |       |100.00

Nlocal:             81 ave          81 max          81 min
Histogram: 1 0 0 0 0 0 0 0 0 0
Nghost:            435 ave         435 max         435 min
Histogram: 1 0 0 0 0 0 0 0 0 0
Neighs:           1917 ave        1917 max        1917 min
Histogram: 1 0 0 0 0 0 0 0 0 0

Total # of neighbors = 1917
Ave neighs/atom = 23.666667
Neighbor list builds = 0
Dangerous builds = 0
Generated 0 of 0 mixed pair_coeff terms from geometric mixing rule
Setting up cg style minimization ...
  Unit style    : metal
  Current step  : 0
WARNING: Energy due to 3 extra global DOFs will be included in minimizer energies
 (../min.cpp:222)
Per MPI rank memory allocation (min/avg/max) = 4.19 | 4.19 | 4.19 Mbytes
   Step         PotEng           Lx             Ly             Lz           Press           Pxx            Pyy            Pzz      
         0  -197.59535      8.7451919      8.7451919      34.490092      0.1185683     -1471.017      -1471.017       2942.3896    
        88  -197.62692      8.7266794      8.7266794      34.490092      21.345596      1.7547191      1.7547191      60.527351    
Loop time of 0.00624135 on 1 procs for 88 steps with 81 atoms

100.0% CPU use with 1 MPI tasks x no OpenMP threads

Minimization stats:
  Stopping criterion = energy tolerance
  Energy initial, next-to-last, final = 
     -197.595345283732  -197.626923899551  -197.626923911767
  Force two-norm initial, final = 3.5134029 0.0058744876
  Force max component initial, final = 2.4218117 0.0028827697
  Final line search alpha, max atom move = 0.77319411 0.0022289406
  Iterations, force evaluations = 88 176

MPI task timing breakdown:
Section |  min time  |  avg time  |  max time  |%varavg| %total
---------------------------------------------------------------
Pair    | 0.0041589  | 0.0041589  | 0.0041589  |   0.0 | 66.63
Neigh   | 0          | 0          | 0          |   0.0 |  0.00
Comm    | 0.00033069 | 0.00033069 | 0.00033069 |   0.0 |  5.30
Output  | 0          | 0          | 0          |   0.0 |  0.00
Modify  | 0          | 0          | 0          |   0.0 |  0.00
Other   |            | 0.001752   |            |       | 28.07

Nlocal:             81 ave          81 max          81 min
Histogram: 1 0 0 0 0 0 0 0 0 0
Nghost:            435 ave         435 max         435 min
Histogram: 1 0 0 0 0 0 0 0 0 0
Neighs:           1917 ave        1917 max        1917 min
Histogram: 1 0 0 0 0 0 0 0 0 0

Total # of neighbors = 1917
Ave neighs/atom = 23.666667
Neighbor list builds = 0
Dangerous builds = 0
Total energy (eV) = -197.626923911767
Number of atoms = 81
Lattice constant (Angstoms) = 8.72667937794459
Total wall time: 0:00:00
