
     Program PWSCF v.7.4.1 starts on  8Oct2025 at  0:23:20 

     This program is part of the open-source Quantum ESPRESSO suite
     for quantum simulation of materials; please cite
         "P. Giannozzi et al., J. Phys.:Condens. Matter 21 395502 (2009);
         "P. Giannozzi et al., J. Phys.:Condens. Matter 29 465901 (2017);
         "P. Giannozzi et al., J. Chem. Phys. 152 154105 (2020);
          URL http://www.quantum-espresso.org", 
     in publications or presentations arising from this work. More details at
     http://www.quantum-espresso.org/quote

     Parallel version (MPI), running on     1 processors

     MPI processes distributed on     1 nodes
     135 MiB available memory on the printing compute node when the environment starts

     Waiting for input...
     Reading input from standard input
Warning: card &CELL ignored
Warning: card / ignored

     Current dimensions of program PWSCF are:
     Max number of different atomic species (ntypx) = 10
     Max number of k-points (npk) =  40000
     Max angular momentum in pseudopotentials (lmaxx) =  4
     Message from routine setup:
     using ibrav=0 with symmetry is DISCOURAGED, use correct ibrav instead

     Subspace diagonalization in iterative solution of the eigenvalue problem:
     a serial algorithm will be used


     G-vector sticks info
     --------------------
     sticks:   dense  smooth     PW     G-vecs:    dense   smooth      PW
     Sum         313     313    109                 3695     3695     725

     Using Slab Decomposition



     bravais-lattice index     =            0
     lattice parameter (alat)  =       7.5604  a.u.
     unit-cell volume          =     305.5804 (a.u.)^3
     number of atoms/cell      =            2
     number of atomic types    =            1
     number of electrons       =        28.00
     number of Kohn-Sham states=           14
     kinetic-energy cutoff     =      20.0000  Ry
     charge density cutoff     =      80.0000  Ry
     scf convergence threshold =      1.0E-07
     mixing beta               =       0.5000
     number of iterations used =            8  plain     mixing
     Exchange-correlation=  SLA  PZ   NOGX NOGC
                           (   1   1   0   0   0   0   0)

     celldm(1)=   7.560435  celldm(2)=   0.000000  celldm(3)=   0.000000
     celldm(4)=   0.000000  celldm(5)=   0.000000  celldm(6)=   0.000000

     crystal axes: (cart. coord. in units of alat)
               a(1) = (   0.000000   0.707107   0.707107 )  
               a(2) = (   0.707107   0.000000   0.707107 )  
               a(3) = (   0.707107   0.707107   0.000000 )  

     reciprocal axes: (cart. coord. in units 2 pi/alat)
               b(1) = ( -0.707107  0.707107  0.707107 )  
               b(2) = (  0.707107 -0.707107  0.707107 )  
               b(3) = (  0.707107  0.707107 -0.707107 )  


     PseudoPot. # 1 for Ge read from file:
     /home/bond/Software/QE/qe-7.4.1/pseudo/ge_lda_v1.4.uspp.F.UPF
     MD5 check sum: bf9d52b59cc8a669818bb2b52e0c2ba0
     Pseudo is Ultrasoft + core correction, Zval = 14.0
     Generated by new atomic code, or converted to UPF format
     Using radial grid of  873 points,  6 beta functions with: 
                l(1) =   0
                l(2) =   0
                l(3) =   1
                l(4) =   1
                l(5) =   2
                l(6) =   2
     Q(r) pseudized with  8 coefficients,  rinner =    1.400   1.400   1.400
                                                       1.400   1.400

     atomic species   valence    mass     pseudopotential
     Ge               14.00    72.63000     Ge( 1.00)

      4 Sym. Ops. (no inversion) found



   Cartesian axes

     site n.     atom                  positions (alat units)
         1        Ge     tau(   1) = (   0.0000000   0.0000000   0.0707107  )
         2        Ge     tau(   2) = (   0.3535534   0.3535534   0.3535534  )

     number of k points=    18
                       cart. coord. in units 2pi/alat
        k(    1) = (   0.0000000   0.0000000   0.0000000), wk =   0.0312500
        k(    2) = (   0.1767767   0.1767767  -0.1767767), wk =   0.1250000
        k(    3) = (  -0.3535534  -0.3535534   0.3535534), wk =   0.0625000
        k(    4) = (   0.3535534   0.0000000   0.0000000), wk =   0.1250000
        k(    5) = (  -0.1767767  -0.5303301   0.5303301), wk =   0.2500000
        k(    6) = (   0.0000000  -0.3535534   0.3535534), wk =   0.2500000
        k(    7) = (  -0.7071068   0.0000000   0.0000000), wk =   0.0625000
        k(    8) = (  -0.7071068   0.3535534   0.0000000), wk =   0.1250000
        k(    9) = (   0.1767767  -0.1767767  -0.1767767), wk =   0.1250000
        k(   10) = (  -0.3535534   0.3535534   0.3535534), wk =   0.0625000
        k(   11) = (   0.0000000   0.0000000   0.3535534), wk =   0.0625000
        k(   12) = (  -0.5303301   0.1767767   0.5303301), wk =   0.2500000
        k(   13) = (   0.5303301   0.5303301  -0.1767767), wk =   0.1250000
        k(   14) = (  -0.5303301   0.5303301   0.1767767), wk =   0.1250000
        k(   15) = (   0.3535534   0.3535534   0.0000000), wk =   0.0625000
        k(   16) = (  -0.3535534   0.3535534   0.0000000), wk =   0.0625000
        k(   17) = (   0.0000000   0.0000000  -0.7071068), wk =   0.0312500
        k(   18) = (   0.7071068   0.0000000   0.3535534), wk =   0.0625000

     Dense  grid:     3695 G-vectors     FFT dimensions: (  24,  24,  24)

     Estimated max dynamical RAM per process >      16.67 MB

     Check: negative core charge=   -0.002226

     Initial potential from superposition of free atoms

     starting charge      27.9986, renormalised to      28.0000
     Starting wfcs are   18 randomized atomic wfcs

     total cpu time spent up to now is        0.8 secs

     Self-consistent Calculation

     iteration #  1     ecut=    20.00 Ry     beta= 0.50
     Davidson diagonalization with overlap
     ethr =  1.00E-02,  avg # of iterations =  1.9

     Threshold (ethr) on eigenvalues was too large:
     Diagonalizing with lowered threshold

     Davidson diagonalization with overlap
     ethr =  6.96E-04,  avg # of iterations =  1.0

     total cpu time spent up to now is        1.3 secs

     total energy              =    -424.67602392 Ry
     estimated scf accuracy    <       0.20315959 Ry

     iteration #  2     ecut=    20.00 Ry     beta= 0.50
     Davidson diagonalization with overlap
     ethr =  7.26E-04,  avg # of iterations =  2.0

     total cpu time spent up to now is        1.7 secs

     total energy              =    -424.69448527 Ry
     estimated scf accuracy    <       0.01451592 Ry

     iteration #  3     ecut=    20.00 Ry     beta= 0.50
     Davidson diagonalization with overlap
     ethr =  5.18E-05,  avg # of iterations =  2.0

     total cpu time spent up to now is        1.9 secs

     total energy              =    -424.69579533 Ry
     estimated scf accuracy    <       0.00062999 Ry

     iteration #  4     ecut=    20.00 Ry     beta= 0.50
     Davidson diagonalization with overlap
     ethr =  2.25E-06,  avg # of iterations =  3.1

     total cpu time spent up to now is        2.2 secs

     total energy              =    -424.69596511 Ry
     estimated scf accuracy    <       0.00001939 Ry

     iteration #  5     ecut=    20.00 Ry     beta= 0.50
     Davidson diagonalization with overlap
     ethr =  6.93E-08,  avg # of iterations =  3.7

     total cpu time spent up to now is        2.6 secs

     total energy              =    -424.69597200 Ry
     estimated scf accuracy    <       0.00000147 Ry

     iteration #  6     ecut=    20.00 Ry     beta= 0.50
     Davidson diagonalization with overlap
     ethr =  5.23E-09,  avg # of iterations =  2.9

     total cpu time spent up to now is        2.9 secs

     total energy              =    -424.69597208 Ry
     estimated scf accuracy    <       0.00000043 Ry

     iteration #  7     ecut=    20.00 Ry     beta= 0.50
     Davidson diagonalization with overlap
     ethr =  1.53E-09,  avg # of iterations =  2.6

     total cpu time spent up to now is        3.2 secs

     End of self-consistent calculation

          k = 0.0000 0.0000 0.0000 (   459 PWs)   bands (ev):

   -18.4755 -18.3739 -18.3084 -18.1828 -18.1628 -18.1129 -18.0501 -17.9844
   -17.9763 -17.8577  -4.6924   6.8675   7.8386   8.3971

          k = 0.1768 0.1768-0.1768 (   477 PWs)   bands (ev):

   -18.6782 -18.5077 -18.4854 -18.4702 -18.4064 -18.3794 -18.2837 -18.2632
   -18.1921 -17.9374  -3.9152   2.7889   6.9720   8.0411

          k =-0.3536-0.3536 0.3536 (   464 PWs)   bands (ev):

   -18.5721 -18.5101 -18.4539 -18.3119 -18.2867 -18.2852 -18.1692 -18.1290
   -17.9601 -17.7880  -2.3011  -0.2891   6.3688   7.5083

          k = 0.3536 0.0000 0.0000 (   456 PWs)   bands (ev):

   -18.4536 -18.3749 -18.3106 -18.2395 -18.2103 -18.0847 -18.0774 -17.9971
   -17.9333 -17.8960  -3.7069   3.0328   6.2685   6.4304

          k =-0.1768-0.5303 0.5303 (   459 PWs)   bands (ev):

   -18.5147 -18.4237 -18.3284 -18.2936 -18.2444 -18.1945 -18.0810 -18.0457
   -18.0216 -17.8565  -2.0141   0.0098   4.8685   5.9449

          k = 0.0000-0.3536 0.3536 (   463 PWs)   bands (ev):

   -18.5181 -18.4572 -18.3615 -18.2676 -18.2434 -18.2235 -18.1506 -18.1272
   -18.0661 -17.8624  -2.8908   1.5293   4.2674   6.8912

          k =-0.7071 0.0000 0.0000 (   460 PWs)   bands (ev):

   -18.4264 -18.4255 -18.3861 -18.3856 -18.2050 -18.2045 -18.1303 -18.1296
   -18.0060 -18.0055  -0.9241  -0.9240   5.2987   5.2987

          k =-0.7071 0.3536 0.0000 (   464 PWs)   bands (ev):

   -18.4810 -18.4545 -18.3901 -18.3195 -18.2827 -18.2102 -18.1982 -18.1667
   -18.0615 -17.9811  -1.4615  -0.0143   3.9394   4.7018

          k = 0.1768-0.1768-0.1768 (   477 PWs)   bands (ev):

   -18.6127 -18.5021 -18.4993 -18.4572 -18.4486 -18.3684 -18.2769 -18.2119
   -18.1269 -18.1184  -4.0328   3.9060   6.3278   7.9780

          k =-0.3536 0.3536 0.3536 (   464 PWs)   bands (ev):

   -18.5110 -18.4547 -18.4489 -18.4453 -18.3783 -18.2531 -18.0352 -18.0335
   -17.9575 -17.9568  -2.9904   1.3567   5.9275   7.5708

          k = 0.0000 0.0000 0.3536 (   456 PWs)   bands (ev):

   -18.5104 -18.3896 -18.3858 -18.3381 -18.2068 -18.0744 -18.0291 -17.9533
   -17.8280 -17.8199  -3.7339   3.5217   5.5147   6.5586

          k =-0.5303 0.1768 0.5303 (   459 PWs)   bands (ev):

   -18.4713 -18.4019 -18.3654 -18.2615 -18.1877 -18.1537 -18.1250 -18.1060
   -18.0065 -17.9334  -2.4994   1.2565   4.0222   6.0536

          k = 0.5303 0.5303-0.1768 (   459 PWs)   bands (ev):

   -18.4698 -18.4214 -18.3377 -18.2645 -18.2369 -18.1861 -18.1272 -18.0681
   -18.0457 -17.8458  -2.1723   0.4437   4.1358   6.2225

          k =-0.5303 0.5303 0.1768 (   459 PWs)   bands (ev):

   -18.4908 -18.4008 -18.3204 -18.3164 -18.2060 -18.1519 -18.1187 -18.0785
   -18.0181 -17.9110  -2.5541   1.3692   4.8265   5.1962

          k = 0.3536 0.3536 0.0000 (   463 PWs)   bands (ev):

   -18.5038 -18.4258 -18.3833 -18.2931 -18.2342 -18.2186 -18.1368 -18.1142
   -18.0490 -17.9399  -2.5901   0.5996   4.4599   7.3351

          k =-0.3536 0.3536 0.0000 (   463 PWs)   bands (ev):

   -18.5427 -18.3682 -18.3184 -18.3177 -18.2566 -18.2123 -18.1183 -18.1123
   -18.0697 -17.9771  -3.1129   2.5594   4.3607   5.8742

          k = 0.0000 0.0000-0.7071 (   460 PWs)   bands (ev):

   -18.4769 -18.3750 -18.3654 -18.3031 -18.2485 -18.2438 -18.1730 -18.1036
   -18.0446 -17.9750  -1.7418   0.2654   4.6454   5.4634

          k = 0.7071 0.0000 0.3536 (   464 PWs)   bands (ev):

   -18.4790 -18.4787 -18.3166 -18.3161 -18.2758 -18.2757 -18.1773 -18.1767
   -18.0299 -18.0294  -0.8417  -0.8416   4.4473   4.4477

     highest occupied level (ev):     8.3971

!    total energy              =    -424.69597214 Ry
     estimated scf accuracy    <          9.9E-09 Ry

     The total energy is the sum of the following terms:
     one-electron contribution =    -275.98997213 Ry
     hartree contribution      =     161.75327240 Ry
     xc contribution           =    -113.71005333 Ry
     ewald contribution        =    -196.74921909 Ry

     convergence has been achieved in   7 iterations

     Forces acting on atoms (cartesian axes, Ry/au):

     atom    1 type  1   force =     0.00000000    0.00000000   -0.11310562
     atom    2 type  1   force =     0.00000000    0.00000000    0.11310562

     Total force =     0.159956     Total SCF correction =     0.000664


     Computing stress (Cartesian axis) and pressure

          total   stress  (Ry/bohr**3)                   (kbar)     P=    -3083.88
  -0.02092639   0.00047522   0.00000000        -3078.38       69.91        0.00
   0.00047522  -0.02092639   0.00000000           69.91    -3078.38        0.00
  -0.00000000   0.00000000  -0.02103851           -0.00        0.00    -3094.87

     Message from routine punch:
     Nothing written, as per user request (disk_io='none')

     init_run     :      0.61s CPU      0.61s WALL (       1 calls)
     electrons    :      2.39s CPU      2.44s WALL (       1 calls)
     forces       :      0.03s CPU      0.03s WALL (       1 calls)
     stress       :      0.24s CPU      0.24s WALL (       1 calls)

     Called by init_run:
     wfcinit      :      0.26s CPU      0.26s WALL (       1 calls)
     potinit      :      0.01s CPU      0.01s WALL (       1 calls)
     hinit0       :      0.31s CPU      0.31s WALL (       1 calls)

     Called by electrons:
     c_bands      :      1.82s CPU      1.85s WALL (       8 calls)
     sum_band     :      0.46s CPU      0.47s WALL (       8 calls)
     v_of_rho     :      0.01s CPU      0.01s WALL (       8 calls)
     newd         :      0.11s CPU      0.12s WALL (       8 calls)
     mix_rho      :      0.00s CPU      0.00s WALL (       8 calls)

     Called by c_bands:
     init_us_2    :      0.06s CPU      0.06s WALL (     342 calls)
     cegterg      :      1.68s CPU      1.70s WALL (     144 calls)

     Called by *egterg:
     cdiaghg      :      0.12s CPU      0.12s WALL (     472 calls)
     h_psi        :      1.62s CPU      1.64s WALL (     508 calls)
     s_psi        :      0.03s CPU      0.03s WALL (     508 calls)
     g_psi        :      0.01s CPU      0.01s WALL (     346 calls)

     Called by h_psi:
     h_psi:calbec :      0.05s CPU      0.05s WALL (     508 calls)
     vloc_psi     :      1.52s CPU      1.55s WALL (     508 calls)
     add_vuspsi   :      0.04s CPU      0.04s WALL (     508 calls)

     General routines
     calbec       :      0.09s CPU      0.09s WALL (     958 calls)
     fft          :      0.17s CPU      0.17s WALL (      41 calls)
     ffts         :      0.00s CPU      0.00s WALL (       8 calls)
     fftw         :      1.60s CPU      1.63s WALL (   12348 calls)

     Parallel routines

     PWSCF        :      3.43s CPU      3.50s WALL


   This run was terminated on:   0:23:23   8Oct2025            

=------------------------------------------------------------------------------=
   JOB DONE.
=------------------------------------------------------------------------------=
