
     Program PWSCF v.7.4.1 starts on 20Oct2025 at 17:51:16 

     This program is part of the open-source Quantum ESPRESSO suite
     for quantum simulation of materials; please cite
         "P. Giannozzi et al., J. Phys.:Condens. Matter 21 395502 (2009);
         "P. Giannozzi et al., J. Phys.:Condens. Matter 29 465901 (2017);
         "P. Giannozzi et al., J. Chem. Phys. 152 154105 (2020);
          URL http://www.quantum-espresso.org", 
     in publications or presentations arising from this work. More details at
     http://www.quantum-espresso.org/quote

     Parallel version (MPI), running on     2 processors

     MPI processes distributed on     1 nodes
     286 MiB available memory on the printing compute node when the environment starts

     Waiting for input...
     Reading input from standard input

     Current dimensions of program PWSCF are:
     Max number of different atomic species (ntypx) = 10
     Max number of k-points (npk) =  40000
     Max angular momentum in pseudopotentials (lmaxx) =  4
     file Fe.pbe-nd-rrkjus.UPF: wavefunction(s)  4S renormalized
     Message from routine find_sym:
     Not a group! Trying with lower acceptance parameter...
     Message from routine find_sym:
     Symmetry operations form a group
     Message from routine setup:
     using ibrav=0 with symmetry is DISCOURAGED, use correct ibrav instead

     R & G space division:  proc/nbgrp/npool/nimage =       2
     Subspace diagonalization in iterative solution of the eigenvalue problem:
     a serial algorithm will be used


     Parallelization info
     --------------------
     sticks:   dense  smooth     PW     G-vecs:    dense   smooth      PW
     Min         273     105     36                 7823     1983     373
     Max         274     106     37                 7826     1986     374
     Sum         547     211     73                15649     3969     747

     Using Slab Decomposition



     bravais-lattice index     =            0
     lattice parameter (alat)  =       5.1023  a.u.
     unit-cell volume          =     178.9386 (a.u.)^3
     number of atoms/cell      =            2
     number of atomic types    =            1
     number of electrons       =        16.00
     number of Kohn-Sham states=           12
     kinetic-energy cutoff     =      30.0000  Ry
     charge density cutoff     =     300.0000  Ry
     scf convergence threshold =      1.0E-07
     mixing beta               =       0.5000
     number of iterations used =            8  plain     mixing
     energy convergence thresh.=      1.0E-04
     force convergence thresh. =      1.0E-03
     press convergence thresh. =      5.0E-01
     Exchange-correlation=  SLA  PW   PBE  PBE
                           (   1   4   3   4   0   0   0)
     nstep                     =           50


     celldm(1)=   5.102261  celldm(2)=   0.000000  celldm(3)=   0.000000
     celldm(4)=   0.000000  celldm(5)=   0.000000  celldm(6)=   0.000000

     crystal axes: (cart. coord. in units of alat)
               a(1) = (   1.000000   0.000000   0.000000 )  
               a(2) = (  -0.500000   0.866025   0.000000 )  
               a(3) = (   0.000000   0.000000   1.555556 )  

     reciprocal axes: (cart. coord. in units 2 pi/alat)
               b(1) = (  1.000000  0.577350 -0.000000 )  
               b(2) = (  0.000000  1.154701  0.000000 )  
               b(3) = (  0.000000 -0.000000  0.642857 )  


     PseudoPot. # 1 for Fe read from file:
     /home/bond/Software/QE/qe-7.4.1/pseudo/Fe.pbe-nd-rrkjus.UPF
     MD5 check sum: 398036227a04b607635f6f5e8dfd8242
     Pseudo is Ultrasoft + core correction, Zval =  8.0
     Generated by new atomic code, or converted to UPF format
     Using radial grid of  957 points,  6 beta functions with: 
                l(1) =   0
                l(2) =   0
                l(3) =   1
                l(4) =   1
                l(5) =   2
                l(6) =   2
     Q(r) pseudized with 0 coefficients 


     atomic species   valence    mass     pseudopotential
     Fe                8.00    55.84500     Fe( 1.00)

     Starting magnetic structure 
     atomic species   magnetization
     Fe              0.700

      4 Sym. Ops. (no inversion) found



   Cartesian axes

     site n.     atom                  positions (alat units)
         1        Fe     tau(   1) = (   0.0000000   0.0000000   0.0000000  )
         2        Fe     tau(   2) = (   0.0000000   0.5773519   0.7777778  )

     number of k points=    14  Methfessel-Paxton smearing, width (Ry)=  0.0200
                       cart. coord. in units 2pi/alat
        k(    1) = (   0.0000000   0.0000000   0.0000000), wk =   0.0312500
        k(    2) = (   0.0000000   0.0000000  -0.3214286), wk =   0.0312500
        k(    3) = (   0.0000000   0.2886751   0.0000000), wk =   0.0625000
        k(    4) = (   0.0000000   0.2886751  -0.3214286), wk =   0.0625000
        k(    5) = (   0.0000000  -0.5773503   0.0000000), wk =   0.0312500
        k(    6) = (   0.0000000  -0.5773503  -0.3214286), wk =   0.0312500
        k(    7) = (   0.2500000   0.4330127   0.0000000), wk =   0.1250000
        k(    8) = (   0.2500000   0.4330127  -0.3214286), wk =   0.1250000
        k(    9) = (   0.2500000  -0.1443376   0.0000000), wk =   0.1250000
        k(   10) = (   0.2500000  -0.1443376  -0.3214286), wk =   0.1250000
        k(   11) = (  -0.5000000   0.2886751   0.0000000), wk =   0.0625000
        k(   12) = (  -0.5000000   0.2886751  -0.3214286), wk =   0.0625000
        k(   13) = (   0.5000000   0.0000000   0.0000000), wk =   0.0625000
        k(   14) = (   0.5000000   0.0000000   0.3214286), wk =   0.0625000

     Dense  grid:    15649 G-vectors     FFT dimensions: (  30,  30,  45)

     Smooth grid:     3969 G-vectors     FFT dimensions: (  18,  18,  27)

     Estimated max dynamical RAM per process >      36.22 MB

     Estimated total dynamical RAM >      72.45 MB

     Check: negative core charge=   -0.000008
     Generating pointlists ...
     new r_m :   0.3996 (alat units)  2.0387 (a.u.) for type    1

     Initial potential from superposition of free atoms

     starting charge      15.9987, renormalised to      16.0000
     Starting wfcs are   12 randomized atomic wfcs

     total cpu time spent up to now is        0.7 secs

     Self-consistent Calculation

     iteration #  1     ecut=    30.00 Ry     beta= 0.50
     Davidson diagonalization with overlap
     ethr =  1.00E-02,  avg # of iterations =  3.8

     total cpu time spent up to now is        1.0 secs

     total energy              =    -111.34171387 Ry
     estimated scf accuracy    <       0.54182876 Ry

     total magnetization       =     7.02 Bohr mag/cell
     absolute magnetization    =     7.02 Bohr mag/cell

     iteration #  2     ecut=    30.00 Ry     beta= 0.50
     Davidson diagonalization with overlap
     ethr =  3.39E-03,  avg # of iterations =  2.1

     total cpu time spent up to now is        1.2 secs

     total energy              =    -111.52635529 Ry
     estimated scf accuracy    <       0.07356214 Ry

     total magnetization       =     5.89 Bohr mag/cell
     absolute magnetization    =     5.95 Bohr mag/cell

     iteration #  3     ecut=    30.00 Ry     beta= 0.50
     Davidson diagonalization with overlap
     ethr =  4.60E-04,  avg # of iterations =  1.9

     total cpu time spent up to now is        1.5 secs

     total energy              =    -111.56205426 Ry
     estimated scf accuracy    <       0.01294048 Ry

     total magnetization       =     5.86 Bohr mag/cell
     absolute magnetization    =     5.96 Bohr mag/cell

     iteration #  4     ecut=    30.00 Ry     beta= 0.50
     Davidson diagonalization with overlap
     ethr =  8.09E-05,  avg # of iterations =  2.5

     total cpu time spent up to now is        1.8 secs

     total energy              =    -111.57103381 Ry
     estimated scf accuracy    <       0.00446534 Ry

     total magnetization       =     5.42 Bohr mag/cell
     absolute magnetization    =     5.68 Bohr mag/cell

     iteration #  5     ecut=    30.00 Ry     beta= 0.50
     Davidson diagonalization with overlap
     ethr =  2.79E-05,  avg # of iterations =  1.4

     total cpu time spent up to now is        2.0 secs

     total energy              =    -111.57114809 Ry
     estimated scf accuracy    <       0.00271581 Ry

     total magnetization       =     5.40 Bohr mag/cell
     absolute magnetization    =     5.67 Bohr mag/cell

     iteration #  6     ecut=    30.00 Ry     beta= 0.50
     Davidson diagonalization with overlap
     ethr =  1.70E-05,  avg # of iterations =  1.0

     total cpu time spent up to now is        2.2 secs

     total energy              =    -111.57131978 Ry
     estimated scf accuracy    <       0.00167014 Ry

     total magnetization       =     5.38 Bohr mag/cell
     absolute magnetization    =     5.67 Bohr mag/cell

     iteration #  7     ecut=    30.00 Ry     beta= 0.50
     Davidson diagonalization with overlap
     ethr =  1.04E-05,  avg # of iterations =  1.0

     total cpu time spent up to now is        2.4 secs

     total energy              =    -111.57113050 Ry
     estimated scf accuracy    <       0.00101166 Ry

     total magnetization       =     5.36 Bohr mag/cell
     absolute magnetization    =     5.66 Bohr mag/cell

     iteration #  8     ecut=    30.00 Ry     beta= 0.50
     Davidson diagonalization with overlap
     ethr =  6.32E-06,  avg # of iterations =  2.0

     total cpu time spent up to now is        2.7 secs

     total energy              =    -111.57145812 Ry
     estimated scf accuracy    <       0.00001237 Ry

     total magnetization       =     5.32 Bohr mag/cell
     absolute magnetization    =     5.63 Bohr mag/cell

     iteration #  9     ecut=    30.00 Ry     beta= 0.50
     Davidson diagonalization with overlap
     ethr =  7.73E-08,  avg # of iterations =  6.4

     total cpu time spent up to now is        3.0 secs

     total energy              =    -111.57146816 Ry
     estimated scf accuracy    <       0.00004504 Ry

     total magnetization       =     5.32 Bohr mag/cell
     absolute magnetization    =     5.63 Bohr mag/cell

     iteration # 10     ecut=    30.00 Ry     beta= 0.50
     Davidson diagonalization with overlap
     ethr =  7.73E-08,  avg # of iterations =  4.0

     total cpu time spent up to now is        3.3 secs

     total energy              =    -111.57148505 Ry
     estimated scf accuracy    <       0.00001681 Ry

     total magnetization       =     5.33 Bohr mag/cell
     absolute magnetization    =     5.63 Bohr mag/cell

     iteration # 11     ecut=    30.00 Ry     beta= 0.50
     Davidson diagonalization with overlap
     ethr =  7.73E-08,  avg # of iterations =  2.0

     total cpu time spent up to now is        3.6 secs

     total energy              =    -111.57148683 Ry
     estimated scf accuracy    <       0.00000103 Ry

     total magnetization       =     5.32 Bohr mag/cell
     absolute magnetization    =     5.63 Bohr mag/cell

     iteration # 12     ecut=    30.00 Ry     beta= 0.50
     Davidson diagonalization with overlap
     ethr =  6.47E-09,  avg # of iterations =  4.4

     total cpu time spent up to now is        3.9 secs

     total energy              =    -111.57148761 Ry
     estimated scf accuracy    <       0.00000029 Ry

     total magnetization       =     5.32 Bohr mag/cell
     absolute magnetization    =     5.63 Bohr mag/cell

     iteration # 13     ecut=    30.00 Ry     beta= 0.50
     Davidson diagonalization with overlap
     ethr =  1.82E-09,  avg # of iterations =  3.5

     Magnetic moment per site  (integrated on atomic sphere of radius R)
     atom   1 (R=0.400)  charge=  6.6367  magn=  2.7276
     atom   2 (R=0.400)  charge=  6.6360  magn=  2.7275

     total cpu time spent up to now is        4.1 secs

     End of self-consistent calculation

 ------ SPIN UP ------------


          k = 0.0000 0.0000 0.0000 (   523 PWs)   bands (ev):

     3.4552   6.8841   8.8888   8.8888   9.1790   9.1880   9.1880   9.3041
     9.3042  10.3709  10.3709  11.7313

          k = 0.0000 0.0000-0.3214 (   494 PWs)   bands (ev):

     5.5432   5.5433   8.7795   8.7795   8.7795   8.7795   8.8790   8.8791
    10.1136  10.1136  10.1136  10.1136

          k = 0.0000 0.2887 0.0000 (   502 PWs)   bands (ev):

     5.1855   7.4922   8.1833   8.3610   8.9187   9.0341   9.2799   9.6169
     9.8101   9.8737  10.5282  15.3788

          k = 0.0000 0.2887-0.3214 (   504 PWs)   bands (ev):

     6.7013   6.7014   8.2562   8.2562   8.9691   8.9691   9.2633   9.2633
    10.1385  10.1385  10.8197  10.8197

          k = 0.0000-0.5774 0.0000 (   492 PWs)   bands (ev):

     7.1098   7.1297   7.3550   8.6106   9.0368   9.0502   9.4500  10.4095
    10.5690  10.6125  12.3298  13.9364

          k = 0.0000-0.5774-0.3214 (   492 PWs)   bands (ev):

     6.9023   6.9023   8.0423   8.0424   9.4848   9.4848  10.3138  10.3139
    10.5105  10.5105  12.7156  12.7157

          k = 0.2500 0.4330 0.0000 (   490 PWs)   bands (ev):

     7.3725   7.4982   7.8402   7.8731   8.5648   8.9862   9.3497  10.1289
    10.5153  10.5476  11.9356  17.7368

          k = 0.2500 0.4330-0.3214 (   492 PWs)   bands (ev):

     7.4064   7.4064   8.3163   8.3163   8.7294   8.7295   9.4209   9.4209
    10.6100  10.6101  13.2888  13.2889

          k = 0.2500-0.1443 0.0000 (   502 PWs)   bands (ev):

     5.1855   7.4922   8.1833   8.3610   8.9187   9.0341   9.2799   9.6169
     9.8101   9.8737  10.5282  15.3788

          k = 0.2500-0.1443-0.3214 (   504 PWs)   bands (ev):

     6.7013   6.7014   8.2562   8.2562   8.9691   8.9691   9.2633   9.2633
    10.1385  10.1385  10.8197  10.8197

          k =-0.5000 0.2887 0.0000 (   492 PWs)   bands (ev):

     7.1098   7.1297   7.3550   8.6106   9.0367   9.0502   9.4500  10.4094
    10.5690  10.6125  12.3298  13.9364

          k =-0.5000 0.2887-0.3214 (   492 PWs)   bands (ev):

     6.9023   6.9023   8.0423   8.0424   9.4848   9.4848  10.3138  10.3139
    10.5105  10.5105  12.7156  12.7157

          k = 0.5000 0.0000 0.0000 (   490 PWs)   bands (ev):

     7.3725   7.4982   7.8402   7.8731   8.5648   8.9862   9.3497  10.1289
    10.5153  10.5475  11.9356  17.7368

          k = 0.5000 0.0000 0.3214 (   492 PWs)   bands (ev):

     7.4064   7.4064   8.3163   8.3163   8.7294   8.7295   9.4209   9.4209
    10.6100  10.6101  13.2888  13.2889

 ------ SPIN DOWN ----------


          k = 0.0000 0.0000 0.0000 (   523 PWs)   bands (ev):

     3.5937   8.3922  11.6083  11.6084  11.8125  11.8416  12.0053  12.0053
    12.4147  12.4147  13.6820  13.6820

          k = 0.0000 0.0000-0.3214 (   494 PWs)   bands (ev):

     5.7655   5.7655  11.1675  11.1675  11.5361  11.5361  11.5361  11.5361
    13.3501  13.3502  13.3502  13.3502

          k = 0.0000 0.2887 0.0000 (   502 PWs)   bands (ev):

     5.3804   9.3322  10.2704  10.6219  11.6355  11.9087  12.0346  12.4960
    12.6551  12.7527  13.8917  16.8521

          k = 0.0000 0.2887-0.3214 (   504 PWs)   bands (ev):

     7.2484   7.2484  10.6071  10.6071  11.3747  11.3747  12.1689  12.1689
    13.3005  13.3005  13.7237  13.7237

          k = 0.0000-0.5774 0.0000 (   492 PWs)   bands (ev):

     8.4687   9.0762   9.5754  10.0531  11.5139  11.7054  12.0280  13.5202
    13.7087  13.9979  14.5395  15.7456

          k = 0.0000-0.5774-0.3214 (   492 PWs)   bands (ev):

     8.6682   8.6682  10.3182  10.3182  12.1752  12.1752  12.5469  12.5469
    13.6415  13.6415  14.1988  14.1988

          k = 0.2500 0.4330 0.0000 (   490 PWs)   bands (ev):

     8.1695   9.7724   9.7796   9.7908  11.3013  11.7069  11.9843  13.0386
    13.5955  13.8691  14.4027  18.7083

          k = 0.2500 0.4330-0.3214 (   492 PWs)   bands (ev):

     9.0790   9.0790  10.3987  10.3987  10.9384  10.9384  12.3712  12.3712
    13.7040  13.7040  15.1441  15.1441

          k = 0.2500-0.1443 0.0000 (   502 PWs)   bands (ev):

     5.3804   9.3322  10.2704  10.6219  11.6355  11.9087  12.0346  12.4960
    12.6551  12.7527  13.8917  16.8521

          k = 0.2500-0.1443-0.3214 (   504 PWs)   bands (ev):

     7.2484   7.2484  10.6071  10.6071  11.3747  11.3747  12.1689  12.1689
    13.3005  13.3005  13.7237  13.7237

          k =-0.5000 0.2887 0.0000 (   492 PWs)   bands (ev):

     8.4687   9.0762   9.5754  10.0531  11.5139  11.7053  12.0280  13.5202
    13.7088  13.9979  14.5395  15.7456

          k =-0.5000 0.2887-0.3214 (   492 PWs)   bands (ev):

     8.6682   8.6682  10.3182  10.3182  12.1752  12.1752  12.5469  12.5469
    13.6415  13.6415  14.1988  14.1988

          k = 0.5000 0.0000 0.0000 (   490 PWs)   bands (ev):

     8.1695   9.7724   9.7796   9.7908  11.3013  11.7069  11.9843  13.0386
    13.5955  13.8691  14.4027  18.7082

          k = 0.5000 0.0000 0.3214 (   492 PWs)   bands (ev):

     9.0790   9.0790  10.3987  10.3987  10.9384  10.9384  12.3712  12.3712
    13.7040  13.7040  15.1441  15.1441

     the Fermi energy is    11.6727 ev

!    total energy              =    -111.57148774 Ry
     estimated scf accuracy    <          6.8E-09 Ry
     smearing contrib. (-TS)   =       0.00029696 Ry
     internal energy E=F+TS    =    -111.57178470 Ry

     The total energy is F=E-TS. E is the sum of the following terms:
     one-electron contribution =       9.03659235 Ry
     hartree contribution      =      14.85940409 Ry
     xc contribution           =     -52.83941709 Ry
     ewald contribution        =     -82.62836405 Ry

     total magnetization       =     5.32 Bohr mag/cell
     absolute magnetization    =     5.63 Bohr mag/cell

     convergence has been achieved in  13 iterations

     Forces acting on atoms (cartesian axes, Ry/au):

     atom    1 type  1   force =     0.00000000   -0.00000493    0.00000000
     atom    2 type  1   force =     0.00000000    0.00000493    0.00000000

     Total force =     0.000007     Total SCF correction =     0.000010
     SCF correction compared to forces is large: reduce conv_thr to get better values


     Computing stress (Cartesian axis) and pressure

          total   stress  (Ry/bohr**3)                   (kbar)     P=     -124.77
  -0.00124164   0.00000000   0.00000000         -182.65        0.00        0.00
   0.00000000  -0.00124162   0.00000000            0.00     -182.65        0.00
   0.00000000   0.00000000  -0.00006119            0.00        0.00       -9.00


     BFGS Geometry Optimization
     Energy error            =      1.5E-02 Ry
     Gradient error          =      4.9E-06 Ry/Bohr
     Cell gradient error     =      1.8E+02 kbar

     number of scf cycles    =   1
     number of bfgs steps    =   0

     enthalpy           new  =    -111.5714877352 Ry

     new trust radius        =       0.0830456884 bohr
     new conv_thr            =       0.0000001000 Ry

     new unit-cell volume =    167.74523 a.u.^3 (    24.85728 Ang^3 )
     density =      7.46122 g/cm^3

CELL_PARAMETERS (angstrom)
   2.616189423   0.000000000   0.000000000
  -1.308094711   2.265687332   0.000000000
   0.000000000   0.000000000   4.193574899

ATOMIC_POSITIONS (angstrom)
Fe               0.0000000000       -0.0000025275        0.0000000000
Fe               0.0000000000        1.5104648896        2.0967874495


     Message from routine punch:
     Nothing written, as per user request (disk_io='none')
     NEW-OLD atomic charge density approx. for the potential
     New effective cutoffs (rho, wfc):  319.36   31.90

     Check: negative core charge=   -0.000004
     Generating pointlists ...
     new r_m :   0.3948 (alat units)  2.0144 (a.u.) for type    1

     total cpu time spent up to now is        4.7 secs

     Self-consistent Calculation

     iteration #  1     ecut=    30.00 Ry     beta= 0.50
     Davidson diagonalization with overlap
     ethr =  1.00E-06,  avg # of iterations =  6.9

     total cpu time spent up to now is        5.1 secs

     total energy              =    -111.58186918 Ry
     estimated scf accuracy    <       0.00029745 Ry

     total magnetization       =     5.37 Bohr mag/cell
     absolute magnetization    =     5.63 Bohr mag/cell

     iteration #  2     ecut=    30.00 Ry     beta= 0.50
     Davidson diagonalization with overlap
     ethr =  1.86E-06,  avg # of iterations =  1.5

     total cpu time spent up to now is        5.4 secs

     total energy              =    -111.58194826 Ry
     estimated scf accuracy    <       0.00008506 Ry

     total magnetization       =     5.37 Bohr mag/cell
     absolute magnetization    =     5.62 Bohr mag/cell

     iteration #  3     ecut=    30.00 Ry     beta= 0.50
     Davidson diagonalization with overlap
     ethr =  5.32E-07,  avg # of iterations =  1.6

     total cpu time spent up to now is        5.6 secs

     total energy              =    -111.58196510 Ry
     estimated scf accuracy    <       0.00006074 Ry

     total magnetization       =     5.37 Bohr mag/cell
     absolute magnetization    =     5.62 Bohr mag/cell

     iteration #  4     ecut=    30.00 Ry     beta= 0.50
     Davidson diagonalization with overlap
     ethr =  3.80E-07,  avg # of iterations =  2.3

     total cpu time spent up to now is        5.9 secs

     total energy              =    -111.58195082 Ry
     estimated scf accuracy    <       0.00082043 Ry

     total magnetization       =     5.37 Bohr mag/cell
     absolute magnetization    =     5.62 Bohr mag/cell

     iteration #  5     ecut=    30.00 Ry     beta= 0.50
     Davidson diagonalization with overlap
     ethr =  3.80E-07,  avg # of iterations =  1.6

     total cpu time spent up to now is        6.1 secs

     total energy              =    -111.58199852 Ry
     estimated scf accuracy    <       0.00000226 Ry

     total magnetization       =     5.37 Bohr mag/cell
     absolute magnetization    =     5.61 Bohr mag/cell

     iteration #  6     ecut=    30.00 Ry     beta= 0.50
     Davidson diagonalization with overlap
     ethr =  1.41E-08,  avg # of iterations =  4.0

     total cpu time spent up to now is        6.4 secs

     total energy              =    -111.58200194 Ry
     estimated scf accuracy    <       0.00000172 Ry

     total magnetization       =     5.37 Bohr mag/cell
     absolute magnetization    =     5.61 Bohr mag/cell

     iteration #  7     ecut=    30.00 Ry     beta= 0.50
     Davidson diagonalization with overlap
     ethr =  1.07E-08,  avg # of iterations =  1.6

     total cpu time spent up to now is        6.6 secs

     total energy              =    -111.58200236 Ry
     estimated scf accuracy    <       0.00000080 Ry

     total magnetization       =     5.37 Bohr mag/cell
     absolute magnetization    =     5.61 Bohr mag/cell

     iteration #  8     ecut=    30.00 Ry     beta= 0.50
     Davidson diagonalization with overlap
     ethr =  4.97E-09,  avg # of iterations =  1.2

     Magnetic moment per site  (integrated on atomic sphere of radius R)
     atom   1 (R=0.395)  charge=  6.6436  magn=  2.7307
     atom   2 (R=0.395)  charge=  6.6421  magn=  2.7307

     total cpu time spent up to now is        6.8 secs

     End of self-consistent calculation

 ------ SPIN UP ------------


          k = 0.0000 0.0000 0.0000 (   523 PWs)   bands (ev):

     4.0935   7.5742   9.8147   9.8147   9.9506  10.1159  10.1159  10.3178
    10.3179  11.3825  11.3826  12.3847

          k = 0.0000 0.0000-0.3219 (   494 PWs)   bands (ev):

     6.1896   6.1897   9.6585   9.6588   9.7266   9.7266   9.7267   9.7267
    11.1061  11.1061  11.1064  11.1064

          k = 0.0000 0.2979 0.0000 (   502 PWs)   bands (ev):

     5.9355   8.2713   8.9429   9.2365   9.8740   9.8943  10.1573  10.6453
    10.7841  10.8396  11.5344  16.4046

          k = 0.0000 0.2979-0.3219 (   504 PWs)   bands (ev):

     7.4189   7.4189   9.0639   9.0641   9.8496   9.8499  10.2744  10.2745
    11.1491  11.1491  11.8329  11.8330

          k = 0.0000-0.5958 0.0000 (   492 PWs)   bands (ev):

     7.8474   7.8791   8.0430   9.5561   9.8545   9.9951  10.3145  11.5655
    11.6067  11.7145  13.5468  15.3402

          k = 0.0000-0.5958-0.3219 (   492 PWs)   bands (ev):

     7.5970   7.5970   8.7839   8.7841  10.4633  10.4636  11.3363  11.3366
    11.6560  11.6563  13.8190  13.8191

          k = 0.2580 0.4469 0.0000 (   490 PWs)   bands (ev):

     8.2252   8.2375   8.6853   8.6882   9.4133   9.8538  10.2364  11.0832
    11.4667  11.6502  13.2255  19.2742

          k = 0.2580 0.4469-0.3219 (   492 PWs)   bands (ev):

     8.1496   8.1497   9.1402   9.1403   9.5950   9.5951  10.3700  10.3701
    11.6867  11.6869  14.5236  14.5237

          k = 0.2580-0.1490 0.0000 (   502 PWs)   bands (ev):

     5.9355   8.2713   8.9429   9.2365   9.8740   9.8943  10.1573  10.6453
    10.7841  10.8396  11.5344  16.4046

          k = 0.2580-0.1490-0.3219 (   504 PWs)   bands (ev):

     7.4189   7.4189   9.0639   9.0641   9.8496   9.8499  10.2744  10.2745
    11.1491  11.1491  11.8329  11.8330

          k =-0.5160 0.2979 0.0000 (   492 PWs)   bands (ev):

     7.8474   7.8791   8.0430   9.5561   9.8545   9.9951  10.3145  11.5655
    11.6067  11.7145  13.5469  15.3401

          k =-0.5160 0.2979-0.3219 (   492 PWs)   bands (ev):

     7.5970   7.5970   8.7839   8.7841  10.4633  10.4636  11.3364  11.3366
    11.6560  11.6563  13.8190  13.8191

          k = 0.5160 0.0000 0.0000 (   490 PWs)   bands (ev):

     8.2252   8.2375   8.6853   8.6882   9.4133   9.8538  10.2364  11.0832
    11.4667  11.6502  13.2255  19.2742

          k = 0.5160 0.0000 0.3219 (   492 PWs)   bands (ev):

     8.1496   8.1497   9.1402   9.1403   9.5950   9.5952  10.3700  10.3701
    11.6867  11.6869  14.5236  14.5237

 ------ SPIN DOWN ----------


          k = 0.0000 0.0000 0.0000 (   523 PWs)   bands (ev):

     4.2895   9.0482  12.5313  12.5313  12.5374  12.5622  12.9227  12.9227
    13.5131  13.5132  14.7684  14.7684

          k = 0.0000 0.0000-0.3219 (   494 PWs)   bands (ev):

     6.4664   6.4664  11.8991  11.8992  12.4907  12.4908  12.4908  12.4908
    14.4068  14.4069  14.4069  14.4069

          k = 0.0000 0.2979 0.0000 (   502 PWs)   bands (ev):

     6.1958  10.0967  11.0002  11.4832  12.4469  12.9642  12.9936  13.5144
    13.5220  13.7774  14.9695  18.0268

          k = 0.0000 0.2979-0.3219 (   504 PWs)   bands (ev):

     8.0345   8.0345  11.4165  11.4166  12.2128  12.2128  13.2217  13.2217
    14.3430  14.3430  14.7765  14.7765

          k = 0.0000-0.5958 0.0000 (   492 PWs)   bands (ev):

     9.3124   9.7994  10.2880  11.0650  12.5363  12.5445  12.8426  14.6809
    14.8547  15.0596  15.7251  17.0918

          k = 0.0000-0.5958-0.3219 (   492 PWs)   bands (ev):

     9.3959   9.3960  11.0791  11.0791  13.2100  13.2100  13.6049  13.6050
    14.7891  14.7892  15.3279  15.3279

          k = 0.2580 0.4469 0.0000 (   490 PWs)   bands (ev):

     9.1017  10.5348  10.6043  10.6271  12.2020  12.6348  12.8252  13.9568
    14.6877  14.8782  15.6802  20.2855

          k = 0.2580 0.4469-0.3219 (   492 PWs)   bands (ev):

     9.8877   9.8878  11.2371  11.2371  11.7922  11.7922  13.3477  13.3477
    14.7929  14.7930  16.4190  16.4190

          k = 0.2580-0.1490 0.0000 (   502 PWs)   bands (ev):

     6.1958  10.0967  11.0003  11.4832  12.4469  12.9642  12.9935  13.5144
    13.5220  13.7774  14.9695  18.0269

          k = 0.2580-0.1490-0.3219 (   504 PWs)   bands (ev):

     8.0345   8.0345  11.4165  11.4166  12.2128  12.2128  13.2217  13.2217
    14.3430  14.3431  14.7765  14.7765

          k =-0.5160 0.2979 0.0000 (   492 PWs)   bands (ev):

     9.3125   9.7994  10.2880  11.0650  12.5363  12.5445  12.8426  14.6809
    14.8547  15.0596  15.7251  17.0918

          k =-0.5160 0.2979-0.3219 (   492 PWs)   bands (ev):

     9.3959   9.3959  11.0791  11.0791  13.2100  13.2100  13.6049  13.6050
    14.7891  14.7892  15.3279  15.3279

          k = 0.5160 0.0000 0.0000 (   490 PWs)   bands (ev):

     9.1017  10.5348  10.6043  10.6271  12.2020  12.6348  12.8252  13.9567
    14.6877  14.8782  15.6803  20.2855

          k = 0.5160 0.0000 0.3219 (   492 PWs)   bands (ev):

     9.8877   9.8878  11.2371  11.2371  11.7922  11.7922  13.3477  13.3477
    14.7930  14.7930  16.4190  16.4190

     the Fermi energy is    12.5470 ev

!    total energy              =    -111.58200246 Ry
     estimated scf accuracy    <       0.00000001 Ry
     smearing contrib. (-TS)   =      -0.00039668 Ry
     internal energy E=F+TS    =    -111.58160578 Ry

     The total energy is F=E-TS. E is the sum of the following terms:
     one-electron contribution =      11.67735659 Ry
     hartree contribution      =      14.09921305 Ry
     xc contribution           =     -52.90783490 Ry
     ewald contribution        =     -84.45034053 Ry

     total magnetization       =     5.37 Bohr mag/cell
     absolute magnetization    =     5.61 Bohr mag/cell

     convergence has been achieved in   8 iterations

     Forces acting on atoms (cartesian axes, Ry/au):

     atom    1 type  1   force =     0.00000000   -0.00000009    0.00000000
     atom    2 type  1   force =     0.00000000    0.00000009    0.00000000

     Total force =     0.000000     Total SCF correction =     0.000001
     SCF correction compared to forces is large: reduce conv_thr to get better values


     Computing stress (Cartesian axis) and pressure

          total   stress  (Ry/bohr**3)                   (kbar)     P=      -31.04
  -0.00063879   0.00000000   0.00000000          -93.97        0.00        0.00
   0.00000000  -0.00063880   0.00000000            0.00      -93.97        0.00
   0.00000000   0.00000000   0.00064447            0.00        0.00       94.81

     Energy error            =      1.1E-02 Ry
     Gradient error          =      8.7E-08 Ry/Bohr
     Cell gradient error     =      9.5E+01 kbar

     number of scf cycles    =   2
     number of bfgs steps    =   1

     enthalpy           old  =    -111.5714877352 Ry
     enthalpy           new  =    -111.5820024564 Ry

     CASE: enthalpy          _new < enthalpy          _old

     new trust radius        =       0.1211357453 bohr
     new conv_thr            =       0.0000000010 Ry

     new unit-cell volume =    156.79316 a.u.^3 (    23.23435 Ang^3 )
     density =      7.98239 g/cm^3

CELL_PARAMETERS (angstrom)
   2.493844630   0.000000000   0.000000000
  -1.246922315   2.159733368   0.000000000
   0.000000000   0.000000000   4.313809659

ATOMIC_POSITIONS (angstrom)
Fe               0.0000000000       -0.0000036772        0.0000000000
Fe               0.0000000000        1.4398298692        2.1569048295


     Message from routine punch:
     Nothing written, as per user request (disk_io='none')
     NEW-OLD atomic charge density approx. for the potential
     New effective cutoffs (rho, wfc):  351.37   35.11

     Check: negative core charge=   -0.000001
     Generating pointlists ...
     new r_m :   0.3810 (alat units)  1.9440 (a.u.) for type    1

     total cpu time spent up to now is        7.2 secs

     Self-consistent Calculation

     iteration #  1     ecut=    30.00 Ry     beta= 0.50
     Davidson diagonalization with overlap
     ethr =  1.00E-06,  avg # of iterations =  7.6

     total cpu time spent up to now is        7.7 secs

     total energy              =    -111.58740159 Ry
     estimated scf accuracy    <       0.00081874 Ry

     total magnetization       =     5.40 Bohr mag/cell
     absolute magnetization    =     5.61 Bohr mag/cell

     iteration #  2     ecut=    30.00 Ry     beta= 0.50
     Davidson diagonalization with overlap
     ethr =  5.12E-06,  avg # of iterations =  1.1

     total cpu time spent up to now is        7.9 secs

     total energy              =    -111.58751747 Ry
     estimated scf accuracy    <       0.00023930 Ry

     total magnetization       =     5.40 Bohr mag/cell
     absolute magnetization    =     5.61 Bohr mag/cell

     iteration #  3     ecut=    30.00 Ry     beta= 0.50
     Davidson diagonalization with overlap
     ethr =  1.50E-06,  avg # of iterations =  2.2

     total cpu time spent up to now is        8.2 secs

     total energy              =    -111.58736311 Ry
     estimated scf accuracy    <       0.00339914 Ry

     total magnetization       =     5.40 Bohr mag/cell
     absolute magnetization    =     5.61 Bohr mag/cell

     iteration #  4     ecut=    30.00 Ry     beta= 0.50
     Davidson diagonalization with overlap
     ethr =  1.50E-06,  avg # of iterations =  2.1

     total cpu time spent up to now is        8.4 secs

     total energy              =    -111.58761683 Ry
     estimated scf accuracy    <       0.00003526 Ry

     total magnetization       =     5.40 Bohr mag/cell
     absolute magnetization    =     5.61 Bohr mag/cell

     iteration #  5     ecut=    30.00 Ry     beta= 0.50
     Davidson diagonalization with overlap
     ethr =  2.20E-07,  avg # of iterations =  1.9

     total cpu time spent up to now is        8.6 secs

     total energy              =    -111.58762639 Ry
     estimated scf accuracy    <       0.00000503 Ry

     total magnetization       =     5.40 Bohr mag/cell
     absolute magnetization    =     5.61 Bohr mag/cell

     iteration #  6     ecut=    30.00 Ry     beta= 0.50
     Davidson diagonalization with overlap
     ethr =  3.14E-08,  avg # of iterations =  4.4

     total cpu time spent up to now is        8.9 secs

     total energy              =    -111.58762993 Ry
     estimated scf accuracy    <       0.00000075 Ry

     total magnetization       =     5.40 Bohr mag/cell
     absolute magnetization    =     5.61 Bohr mag/cell

     iteration #  7     ecut=    30.00 Ry     beta= 0.50
     Davidson diagonalization with overlap
     ethr =  4.66E-09,  avg # of iterations =  4.5

     total cpu time spent up to now is        9.2 secs

     total energy              =    -111.58763051 Ry
     estimated scf accuracy    <       0.00000028 Ry

     total magnetization       =     5.40 Bohr mag/cell
     absolute magnetization    =     5.61 Bohr mag/cell

     iteration #  8     ecut=    30.00 Ry     beta= 0.50
     Davidson diagonalization with overlap
     ethr =  1.75E-09,  avg # of iterations =  2.4

     total cpu time spent up to now is        9.5 secs

     total energy              =    -111.58763059 Ry
     estimated scf accuracy    <       0.00000003 Ry

     total magnetization       =     5.40 Bohr mag/cell
     absolute magnetization    =     5.61 Bohr mag/cell

     iteration #  9     ecut=    30.00 Ry     beta= 0.50
     Davidson diagonalization with overlap
     ethr =  1.72E-10,  avg # of iterations =  4.8

     total cpu time spent up to now is        9.8 secs

     total energy              =    -111.58763061 Ry
     estimated scf accuracy    <          1.7E-09 Ry

     total magnetization       =     5.40 Bohr mag/cell
     absolute magnetization    =     5.61 Bohr mag/cell

     iteration # 10     ecut=    30.00 Ry     beta= 0.50
     Davidson diagonalization with overlap
     ethr =  1.09E-11,  avg # of iterations =  5.5

     Magnetic moment per site  (integrated on atomic sphere of radius R)
     atom   1 (R=0.381)  charge=  6.5299  magn=  2.7320
     atom   2 (R=0.381)  charge=  6.5304  magn=  2.7321

     total cpu time spent up to now is       10.1 secs

     End of self-consistent calculation

 ------ SPIN UP ------------


          k = 0.0000 0.0000 0.0000 (   523 PWs)   bands (ev):

     4.8448   8.2943  10.5668  10.8746  10.8746  11.1263  11.1263  11.6208
    11.6209  12.5124  12.5124  12.7085

          k = 0.0000 0.0000-0.3129 (   494 PWs)   bands (ev):

     6.8239   6.8239  10.3697  10.3697  10.8537  10.8537  10.8537  10.8537
    12.2258  12.2258  12.2258  12.2258

          k = 0.0000 0.3125 0.0000 (   502 PWs)   bands (ev):

     6.8649   9.1636   9.7053  10.2898  10.6577  11.1201  11.1645  11.6767
    11.8756  12.0381  12.6104  17.3003

          k = 0.0000 0.3125-0.3129 (   504 PWs)   bands (ev):

     8.2022   8.2022   9.9178   9.9179  10.8301  10.8302  11.5443  11.5443
    12.2755  12.2755  12.8787  12.8788

          k = 0.0000-0.6251 0.0000 (   492 PWs)   bands (ev):

     8.6226   8.7297   8.7810  10.6010  10.7972  11.1875  11.2382  12.6286
    13.0156  13.1199  15.0195  17.0599

          k = 0.0000-0.6251-0.3129 (   492 PWs)   bands (ev):

     8.3694   8.3694   9.5040   9.5040  11.6312  11.6312  12.4821  12.4821
    13.0745  13.0745  15.1408  15.1408

          k = 0.2707 0.4688 0.0000 (   490 PWs)   bands (ev):

     9.0802   9.3076   9.6498   9.7211  10.3735  10.8290  11.1250  12.0294
    12.3717  12.9297  14.8965  21.0117

          k = 0.2707 0.4688-0.3129 (   492 PWs)   bands (ev):

     9.0099   9.0099  10.0425  10.0425  10.5819  10.5819  11.4249  11.4249
    12.8751  12.8751  16.0309  16.0309

          k = 0.2707-0.1563 0.0000 (   502 PWs)   bands (ev):

     6.8649   9.1636   9.7053  10.2898  10.6577  11.1201  11.1645  11.6767
    11.8756  12.0381  12.6104  17.3003

          k = 0.2707-0.1563-0.3129 (   504 PWs)   bands (ev):

     8.2022   8.2022   9.9178   9.9179  10.8301  10.8301  11.5443  11.5443
    12.2755  12.2755  12.8788  12.8788

          k =-0.5413 0.3125 0.0000 (   492 PWs)   bands (ev):

     8.6226   8.7297   8.7811  10.6010  10.7972  11.1875  11.2381  12.6286
    13.0156  13.1199  15.0195  17.0599

          k =-0.5413 0.3125-0.3129 (   492 PWs)   bands (ev):

     8.3694   8.3694   9.5040   9.5040  11.6312  11.6312  12.4821  12.4821
    13.0745  13.0745  15.1408  15.1408

          k = 0.5413 0.0000 0.0000 (   490 PWs)   bands (ev):

     9.0802   9.3076   9.6498   9.7211  10.3735  10.8290  11.1250  12.0294
    12.3716  12.9297  14.8965  21.0117

          k = 0.5413 0.0000 0.3129 (   492 PWs)   bands (ev):

     9.0099   9.0099  10.0425  10.0425  10.5819  10.5819  11.4249  11.4249
    12.8751  12.8751  16.0309  16.0309

 ------ SPIN DOWN ----------


          k = 0.0000 0.0000 0.0000 (   523 PWs)   bands (ev):

     5.0722   9.6849  12.8786  13.0630  13.6040  13.6040  13.9259  13.9259
    14.9635  14.9635  16.0176  16.0176

          k = 0.0000 0.0000-0.3129 (   494 PWs)   bands (ev):

     7.1289   7.1289  12.5010  12.5010  13.6279  13.6279  13.6279  13.6279
    15.6481  15.6481  15.6481  15.6481

          k = 0.0000 0.3125 0.0000 (   502 PWs)   bands (ev):

     7.1721  10.9677  11.6224  12.5179  13.1765  14.0967  14.3026  14.3756
    14.7649  14.9791  16.1517  19.1280

          k = 0.0000 0.3125-0.3129 (   504 PWs)   bands (ev):

     8.8590   8.8590  12.2682  12.2682  13.1247  13.1247  14.5652  14.5652
    15.5314  15.5314  15.8781  15.8781

          k = 0.0000-0.6251 0.0000 (   492 PWs)   bands (ev):

    10.2850  10.5818  11.0391  12.4085  13.3169  13.5997  13.9134  16.1525
    16.1756  16.2732  17.0760  18.6445

          k = 0.0000-0.6251-0.3129 (   492 PWs)   bands (ev):

    10.1991  10.1991  11.8247  11.8247  14.4392  14.4392  14.9087  14.9088
    16.2224  16.2225  16.5545  16.5545

          k = 0.2707 0.4688 0.0000 (   490 PWs)   bands (ev):

    10.2794  11.3628  11.5707  11.6983  13.2333  13.6167  13.7060  14.8278
    15.8490  15.9438  17.3223  22.0563

          k = 0.2707 0.4688-0.3129 (   492 PWs)   bands (ev):

    10.8134  10.8134  12.1585  12.1585  12.7748  12.7749  14.4441  14.4441
    15.9899  15.9899  17.9634  17.9634

          k = 0.2707-0.1563 0.0000 (   502 PWs)   bands (ev):

     7.1721  10.9677  11.6224  12.5179  13.1765  14.0966  14.3027  14.3756
    14.7649  14.9791  16.1517  19.1281

          k = 0.2707-0.1563-0.3129 (   504 PWs)   bands (ev):

     8.8590   8.8590  12.2682  12.2682  13.1247  13.1247  14.5652  14.5652
    15.5314  15.5315  15.8781  15.8781

          k =-0.5413 0.3125 0.0000 (   492 PWs)   bands (ev):

    10.2851  10.5818  11.0391  12.4085  13.3168  13.5997  13.9134  16.1525
    16.1756  16.2732  17.0761  18.6445

          k =-0.5413 0.3125-0.3129 (   492 PWs)   bands (ev):

    10.1990  10.1991  11.8247  11.8247  14.4392  14.4392  14.9087  14.9088
    16.2224  16.2225  16.5544  16.5544

          k = 0.5413 0.0000 0.0000 (   490 PWs)   bands (ev):

    10.2794  11.3628  11.5707  11.6983  13.2333  13.6167  13.7060  14.8278
    15.8490  15.9438  17.3223  22.0563

          k = 0.5413 0.0000 0.3129 (   492 PWs)   bands (ev):

    10.8134  10.8134  12.1585  12.1585  12.7748  12.7749  14.4441  14.4441
    15.9899  15.9899  17.9634  17.9634

     the Fermi energy is    13.4841 ev

!    total energy              =    -111.58763061 Ry
     estimated scf accuracy    <          3.1E-10 Ry
     smearing contrib. (-TS)   =       0.00111712 Ry
     internal energy E=F+TS    =    -111.58874773 Ry

     The total energy is F=E-TS. E is the sum of the following terms:
     one-electron contribution =      14.36117244 Ry
     hartree contribution      =      13.39178248 Ry
     xc contribution           =     -53.00503068 Ry
     ewald contribution        =     -86.33667197 Ry

     total magnetization       =     5.40 Bohr mag/cell
     absolute magnetization    =     5.61 Bohr mag/cell

     convergence has been achieved in  10 iterations

     Forces acting on atoms (cartesian axes, Ry/au):

     atom    1 type  1   force =     0.00000000   -0.00000039    0.00000000
     atom    2 type  1   force =     0.00000000    0.00000039    0.00000000

     Total force =     0.000001     Total SCF correction =     0.000000
     SCF correction compared to forces is large: reduce conv_thr to get better values


     Computing stress (Cartesian axis) and pressure

          total   stress  (Ry/bohr**3)                   (kbar)     P=      108.69
   0.00063623   0.00000000   0.00000000           93.59        0.00        0.00
   0.00000000   0.00063619   0.00000000            0.00       93.59        0.00
   0.00000000   0.00000000   0.00094414            0.00        0.00      138.89

     Energy error            =      5.6E-03 Ry
     Gradient error          =      3.9E-07 Ry/Bohr
     Cell gradient error     =      1.4E+02 kbar

     number of scf cycles    =   3
     number of bfgs steps    =   2

     enthalpy           old  =    -111.5820024564 Ry
     enthalpy           new  =    -111.5876306095 Ry

     CASE: enthalpy          _new < enthalpy          _old

     new trust radius        =       0.0332447067 bohr
     new conv_thr            =       0.0000000010 Ry

     new unit-cell volume =    162.30087 a.u.^3 (    24.05051 Ang^3 )
     density =      7.71150 g/cm^3

CELL_PARAMETERS (angstrom)
   2.526949993   0.000000000   0.000000000
  -1.263474997   2.188402181   0.000000000
   0.000000000   0.000000000   4.349110754

ATOMIC_POSITIONS (angstrom)
Fe               0.0000000000       -0.0000041390        0.0000000000
Fe               0.0000000000        1.4589429257        2.1745553770


     Message from routine punch:
     Nothing written, as per user request (disk_io='none')
     NEW-OLD atomic charge density approx. for the potential
     New effective cutoffs (rho, wfc):  342.23   34.19

     Check: negative core charge=   -0.000003
     Generating pointlists ...

     total cpu time spent up to now is       10.5 secs

     Self-consistent Calculation

     iteration #  1     ecut=    30.00 Ry     beta= 0.50
     Davidson diagonalization with overlap
     ethr =  1.00E-06,  avg # of iterations =  5.0

     total cpu time spent up to now is       10.9 secs

     total energy              =    -111.58995044 Ry
     estimated scf accuracy    <       0.00006770 Ry

     total magnetization       =     5.38 Bohr mag/cell
     absolute magnetization    =     5.61 Bohr mag/cell

     iteration #  2     ecut=    30.00 Ry     beta= 0.50
     Davidson diagonalization with overlap
     ethr =  4.23E-07,  avg # of iterations =  2.4

     total cpu time spent up to now is       11.1 secs

     total energy              =    -111.58997500 Ry
     estimated scf accuracy    <       0.00002354 Ry

     total magnetization       =     5.38 Bohr mag/cell
     absolute magnetization    =     5.61 Bohr mag/cell

     iteration #  3     ecut=    30.00 Ry     beta= 0.50
     Davidson diagonalization with overlap
     ethr =  1.47E-07,  avg # of iterations =  1.5

     total cpu time spent up to now is       11.4 secs

     total energy              =    -111.58997226 Ry
     estimated scf accuracy    <       0.00005246 Ry

     total magnetization       =     5.38 Bohr mag/cell
     absolute magnetization    =     5.61 Bohr mag/cell

     iteration #  4     ecut=    30.00 Ry     beta= 0.50
     Davidson diagonalization with overlap
     ethr =  1.47E-07,  avg # of iterations =  1.1

     total cpu time spent up to now is       11.6 secs

     total energy              =    -111.58998197 Ry
     estimated scf accuracy    <       0.00002947 Ry

     total magnetization       =     5.38 Bohr mag/cell
     absolute magnetization    =     5.61 Bohr mag/cell

     iteration #  5     ecut=    30.00 Ry     beta= 0.50
     Davidson diagonalization with overlap
     ethr =  1.47E-07,  avg # of iterations =  1.5

     total cpu time spent up to now is       11.8 secs

     total energy              =    -111.58998447 Ry
     estimated scf accuracy    <       0.00000095 Ry

     total magnetization       =     5.38 Bohr mag/cell
     absolute magnetization    =     5.61 Bohr mag/cell

     iteration #  6     ecut=    30.00 Ry     beta= 0.50
     Davidson diagonalization with overlap
     ethr =  5.96E-09,  avg # of iterations =  3.4

     total cpu time spent up to now is       12.1 secs

     total energy              =    -111.58998509 Ry
     estimated scf accuracy    <       0.00000044 Ry

     total magnetization       =     5.38 Bohr mag/cell
     absolute magnetization    =     5.61 Bohr mag/cell

     iteration #  7     ecut=    30.00 Ry     beta= 0.50
     Davidson diagonalization with overlap
     ethr =  2.78E-09,  avg # of iterations =  2.1

     total cpu time spent up to now is       12.3 secs

     total energy              =    -111.58998509 Ry
     estimated scf accuracy    <       0.00000012 Ry

     total magnetization       =     5.38 Bohr mag/cell
     absolute magnetization    =     5.61 Bohr mag/cell

     iteration #  8     ecut=    30.00 Ry     beta= 0.50
     Davidson diagonalization with overlap
     ethr =  7.37E-10,  avg # of iterations =  4.2

     total cpu time spent up to now is       12.6 secs

     total energy              =    -111.58998516 Ry
     estimated scf accuracy    <       0.00000001 Ry

     total magnetization       =     5.38 Bohr mag/cell
     absolute magnetization    =     5.61 Bohr mag/cell

     iteration #  9     ecut=    30.00 Ry     beta= 0.50
     Davidson diagonalization with overlap
     ethr =  7.62E-11,  avg # of iterations =  4.4

     Magnetic moment per site  (integrated on atomic sphere of radius R)
     atom   1 (R=0.381)  charge=  6.4890  magn=  2.7292
     atom   2 (R=0.381)  charge=  6.4898  magn=  2.7293

     total cpu time spent up to now is       12.9 secs

     End of self-consistent calculation

 ------ SPIN UP ------------


          k = 0.0000 0.0000 0.0000 (   523 PWs)   bands (ev):

     4.4581   7.8797  10.0811  10.3419  10.3419  10.5842  10.5842  11.0206
    11.0206  11.8820  11.8820  12.2134

          k = 0.0000 0.0000-0.3104 (   494 PWs)   bands (ev):

     6.4066   6.4066   9.8888   9.8888  10.3163  10.3163  10.3163  10.3163
    11.6098  11.6098  11.6098  11.6098

          k = 0.0000 0.3084 0.0000 (   502 PWs)   bands (ev):

     6.4259   8.7157   9.2411   9.7870  10.1548  10.5702  10.5891  11.1203
    11.2861  11.4418  11.9784  16.6063

          k = 0.0000 0.3084-0.3104 (   504 PWs)   bands (ev):

     7.7609   7.7609   9.4426   9.4427  10.3051  10.3051  10.9584  10.9584
    11.6657  11.6657  12.2519  12.2519

          k = 0.0000-0.6169 0.0000 (   492 PWs)   bands (ev):

     8.2118   8.2917   8.3576  10.0917  10.2413  10.6538  10.6898  11.9994
    12.3566  12.4585  14.3319  16.2897

          k = 0.0000-0.6169-0.3104 (   492 PWs)   bands (ev):

     7.9563   7.9563   9.0545   9.0546  11.0418  11.0418  11.8768  11.8768
    12.4143  12.4143  14.4960  14.4960

          k = 0.2671 0.4627 0.0000 (   490 PWs)   bands (ev):

     8.6379   8.8241   9.1804   9.2425   9.8595  10.2912  10.5941  11.4541
    11.7641  12.2890  14.1718  20.1933

          k = 0.2671 0.4627-0.3104 (   492 PWs)   bands (ev):

     8.5637   8.5637   9.5570   9.5570  10.0663  10.0663  10.8609  10.8609
    12.2402  12.2402  15.3030  15.3030

          k = 0.2671-0.1542 0.0000 (   502 PWs)   bands (ev):

     6.4259   8.7157   9.2412   9.7869  10.1548  10.5701  10.5891  11.1204
    11.2861  11.4418  11.9784  16.6063

          k = 0.2671-0.1542-0.3104 (   504 PWs)   bands (ev):

     7.7609   7.7609   9.4426   9.4427  10.3051  10.3051  10.9584  10.9584
    11.6657  11.6657  12.2519  12.2519

          k =-0.5342 0.3084 0.0000 (   492 PWs)   bands (ev):

     8.2118   8.2917   8.3576  10.0917  10.2413  10.6538  10.6898  11.9994
    12.3566  12.4585  14.3319  16.2896

          k =-0.5342 0.3084-0.3104 (   492 PWs)   bands (ev):

     7.9563   7.9563   9.0545   9.0546  11.0418  11.0418  11.8769  11.8769
    12.4143  12.4143  14.4959  14.4959

          k = 0.5342 0.0000 0.0000 (   490 PWs)   bands (ev):

     8.6379   8.8241   9.1804   9.2425   9.8595  10.2912  10.5941  11.4541
    11.7641  12.2890  14.1718  20.1933

          k = 0.5342 0.0000 0.3104 (   492 PWs)   bands (ev):

     8.5637   8.5637   9.5570   9.5570  10.0663  10.0663  10.8609  10.8609
    12.2402  12.2402  15.3030  15.3030

 ------ SPIN DOWN ----------


          k = 0.0000 0.0000 0.0000 (   523 PWs)   bands (ev):

     4.6583   9.2535  12.3544  12.5738  13.0613  13.0613  13.3738  13.3738
    14.3559  14.3559  15.3805  15.3805

          k = 0.0000 0.0000-0.3104 (   494 PWs)   bands (ev):

     6.6808   6.6808  12.0221  12.0221  13.0822  13.0822  13.0822  13.0822
    15.0233  15.0233  15.0233  15.0233

          k = 0.0000 0.3084 0.0000 (   502 PWs)   bands (ev):

     6.7020  10.5037  11.1675  12.0122  12.6687  13.5457  13.7429  13.7951
    14.1641  14.3711  15.5131  18.3933

          k = 0.0000 0.3084-0.3104 (   504 PWs)   bands (ev):

     8.3808   8.3808  11.7927  11.7927  12.6008  12.6008  13.9714  13.9714
    14.9121  14.9121  15.2478  15.2478

          k = 0.0000-0.6169 0.0000 (   492 PWs)   bands (ev):

     9.8199  10.1606  10.6246  11.8400  12.8129  13.0638  13.3537  15.4779
    15.5405  15.5964  16.3696  17.8690

          k = 0.0000-0.6169-0.3104 (   492 PWs)   bands (ev):

     9.7784   9.7784  11.3695  11.3695  13.8237  13.8238  14.3143  14.3143
    15.5471  15.5471  15.8813  15.8813

          k = 0.2671 0.4627 0.0000 (   490 PWs)   bands (ev):

     9.7589  10.9305  11.0994  11.2095  12.7226  13.0813  13.1694  14.2450
    15.2388  15.2914  16.5845  21.2004

          k = 0.2671 0.4627-0.3104 (   492 PWs)   bands (ev):

    10.3490  10.3490  11.6640  11.6640  12.2619  12.2619  13.8780  13.8780
    15.3457  15.3458  17.2138  17.2138

          k = 0.2671-0.1542 0.0000 (   502 PWs)   bands (ev):

     6.7020  10.5037  11.1675  12.0122  12.6687  13.5456  13.7429  13.7952
    14.1641  14.3711  15.5131  18.3933

          k = 0.2671-0.1542-0.3104 (   504 PWs)   bands (ev):

     8.3808   8.3808  11.7927  11.7927  12.6008  12.6008  13.9714  13.9714
    14.9121  14.9121  15.2478  15.2478

          k =-0.5342 0.3084 0.0000 (   492 PWs)   bands (ev):

     9.8200  10.1606  10.6247  11.8400  12.8129  13.0637  13.3537  15.4779
    15.5405  15.5964  16.3696  17.8689

          k =-0.5342 0.3084-0.3104 (   492 PWs)   bands (ev):

     9.7784   9.7784  11.3695  11.3695  13.8238  13.8238  14.3143  14.3143
    15.5471  15.5471  15.8812  15.8812

          k = 0.5342 0.0000 0.0000 (   490 PWs)   bands (ev):

     9.7590  10.9305  11.0994  11.2095  12.7226  13.0813  13.1694  14.2450
    15.2388  15.2914  16.5845  21.2004

          k = 0.5342 0.0000 0.3104 (   492 PWs)   bands (ev):

    10.3490  10.3490  11.6640  11.6640  12.2618  12.2619  13.8780  13.8780
    15.3458  15.3458  17.2138  17.2138

     the Fermi energy is    12.9592 ev

!    total energy              =    -111.58998517 Ry
     estimated scf accuracy    <          4.3E-10 Ry
     smearing contrib. (-TS)   =       0.00052832 Ry
     internal energy E=F+TS    =    -111.59051348 Ry

     The total energy is F=E-TS. E is the sum of the following terms:
     one-electron contribution =      12.96825622 Ry
     hartree contribution      =      13.75060410 Ry
     xc contribution           =     -52.95346543 Ry
     ewald contribution        =     -85.35590837 Ry

     total magnetization       =     5.38 Bohr mag/cell
     absolute magnetization    =     5.61 Bohr mag/cell

     convergence has been achieved in   9 iterations

     Forces acting on atoms (cartesian axes, Ry/au):

     atom    1 type  1   force =     0.00000000   -0.00000039    0.00000000
     atom    2 type  1   force =     0.00000000    0.00000039    0.00000000

     Total force =     0.000001     Total SCF correction =     0.000000
     SCF correction compared to forces is large: reduce conv_thr to get better values


     Computing stress (Cartesian axis) and pressure

          total   stress  (Ry/bohr**3)                   (kbar)     P=       30.88
   0.00005372   0.00000000   0.00000000            7.90        0.00        0.00
   0.00000000   0.00005368   0.00000000            0.00        7.90        0.00
   0.00000000   0.00000000   0.00052237            0.00        0.00       76.84

     Energy error            =      2.4E-03 Ry
     Gradient error          =      3.9E-07 Ry/Bohr
     Cell gradient error     =      7.7E+01 kbar

     number of scf cycles    =   4
     number of bfgs steps    =   3

     enthalpy           old  =    -111.5876306095 Ry
     enthalpy           new  =    -111.5899851667 Ry

     CASE: enthalpy          _new < enthalpy          _old

     new trust radius        =       0.0494248622 bohr
     new conv_thr            =       0.0000000010 Ry

     new unit-cell volume =    164.85146 a.u.^3 (    24.42847 Ang^3 )
     density =      7.59219 g/cm^3

CELL_PARAMETERS (angstrom)
   2.522383248   0.000000000   0.000000000
  -1.261191624   2.184444011   0.000000000
   0.000000000   0.000000000   4.433474433

ATOMIC_POSITIONS (angstrom)
Fe               0.0000000000       -0.0000052136        0.0000000000
Fe               0.0000000000        1.4563052133        2.2167372166


     Message from routine punch:
     Nothing written, as per user request (disk_io='none')
     NEW-OLD atomic charge density approx. for the potential
     New effective cutoffs (rho, wfc):  343.44   34.32

     Check: negative core charge=   -0.000003
     Generating pointlists ...

     total cpu time spent up to now is       13.3 secs

     Self-consistent Calculation

     iteration #  1     ecut=    30.00 Ry     beta= 0.50
     Davidson diagonalization with overlap
     ethr =  1.00E-06,  avg # of iterations =  5.9

     total cpu time spent up to now is       13.7 secs

     total energy              =    -111.59088069 Ry
     estimated scf accuracy    <       0.00009030 Ry

     total magnetization       =     5.39 Bohr mag/cell
     absolute magnetization    =     5.62 Bohr mag/cell

     iteration #  2     ecut=    30.00 Ry     beta= 0.50
     Davidson diagonalization with overlap
     ethr =  5.64E-07,  avg # of iterations =  1.0

     total cpu time spent up to now is       13.9 secs

     total energy              =    -111.59089704 Ry
     estimated scf accuracy    <       0.00002033 Ry

     total magnetization       =     5.39 Bohr mag/cell
     absolute magnetization    =     5.63 Bohr mag/cell

     iteration #  3     ecut=    30.00 Ry     beta= 0.50
     Davidson diagonalization with overlap
     ethr =  1.27E-07,  avg # of iterations =  2.0

     total cpu time spent up to now is       14.1 secs

     total energy              =    -111.59090139 Ry
     estimated scf accuracy    <       0.00000172 Ry

     total magnetization       =     5.39 Bohr mag/cell
     absolute magnetization    =     5.63 Bohr mag/cell

     iteration #  4     ecut=    30.00 Ry     beta= 0.50
     Davidson diagonalization with overlap
     ethr =  1.07E-08,  avg # of iterations =  3.4

     total cpu time spent up to now is       14.4 secs

     total energy              =    -111.59090103 Ry
     estimated scf accuracy    <       0.00001865 Ry

     total magnetization       =     5.39 Bohr mag/cell
     absolute magnetization    =     5.63 Bohr mag/cell

     iteration #  5     ecut=    30.00 Ry     beta= 0.50
     Davidson diagonalization with overlap
     ethr =  1.07E-08,  avg # of iterations =  2.4

     total cpu time spent up to now is       14.7 secs

     total energy              =    -111.59090273 Ry
     estimated scf accuracy    <       0.00000078 Ry

     total magnetization       =     5.39 Bohr mag/cell
     absolute magnetization    =     5.63 Bohr mag/cell

     iteration #  6     ecut=    30.00 Ry     beta= 0.50
     Davidson diagonalization with overlap
     ethr =  4.89E-09,  avg # of iterations =  1.4

     total cpu time spent up to now is       14.9 secs

     total energy              =    -111.59090287 Ry
     estimated scf accuracy    <       0.00000003 Ry

     total magnetization       =     5.39 Bohr mag/cell
     absolute magnetization    =     5.63 Bohr mag/cell

     iteration #  7     ecut=    30.00 Ry     beta= 0.50
     Davidson diagonalization with overlap
     ethr =  1.73E-10,  avg # of iterations =  6.1

     total cpu time spent up to now is       15.2 secs

     total energy              =    -111.59090294 Ry
     estimated scf accuracy    <       0.00000001 Ry

     total magnetization       =     5.39 Bohr mag/cell
     absolute magnetization    =     5.63 Bohr mag/cell

     iteration #  8     ecut=    30.00 Ry     beta= 0.50
     Davidson diagonalization with overlap
     ethr =  8.18E-11,  avg # of iterations =  2.7

     Magnetic moment per site  (integrated on atomic sphere of radius R)
     atom   1 (R=0.381)  charge=  6.4748  magn=  2.7348
     atom   2 (R=0.381)  charge=  6.4750  magn=  2.7348

     total cpu time spent up to now is       15.4 secs

     End of self-consistent calculation

 ------ SPIN UP ------------


          k = 0.0000 0.0000 0.0000 (   523 PWs)   bands (ev):

     4.2930   7.6573   9.7492  10.1188  10.1188  10.3349  10.3349  10.8184
    10.8185  11.5910  11.5910  11.7904

          k = 0.0000 0.0000-0.3045 (   494 PWs)   bands (ev):

     6.1667   6.1667   9.5959   9.5959  10.1068  10.1068  10.1068  10.1068
    11.3345  11.3345  11.3345  11.3345

          k = 0.0000 0.3090 0.0000 (   502 PWs)   bands (ev):

     6.2657   8.5186   8.9895   9.5956   9.8627  10.3083  10.4034  10.8142
    11.0634  11.2021  11.6655  16.1652

          k = 0.0000 0.3090-0.3045 (   504 PWs)   bands (ev):

     7.5479   7.5479   9.2053   9.2053  10.0681  10.0681  10.7551  10.7551
    11.3920  11.3920  11.9223  11.9223

          k = 0.0000-0.6180 0.0000 (   492 PWs)   bands (ev):

     8.0147   8.0902   8.1499   9.7890  10.0668  10.3739  10.5151  11.6699
    12.1378  12.2247  14.0803  16.0254

          k = 0.0000-0.6180-0.3045 (   492 PWs)   bands (ev):

     7.7675   7.7675   8.8037   8.8037  10.8027  10.8027  11.5977  11.5977
    12.1862  12.1862  14.2481  14.2481

          k = 0.2676 0.4635 0.0000 (   490 PWs)   bands (ev):

     8.4416   8.6653   8.9937   9.0657   9.6277  10.0483  10.3155  11.1417
    11.4135  12.0229  13.9578  19.8280

          k = 0.2676 0.4635-0.3045 (   492 PWs)   bands (ev):

     8.3742   8.3742   9.3312   9.3312   9.8422   9.8422  10.6028  10.6028
    11.9413  11.9413  15.0353  15.0353

          k = 0.2676-0.1545 0.0000 (   502 PWs)   bands (ev):

     6.2657   8.5186   8.9895   9.5956   9.8627  10.3083  10.4034  10.8142
    11.0634  11.2021  11.6655  16.1652

          k = 0.2676-0.1545-0.3045 (   504 PWs)   bands (ev):

     7.5479   7.5479   9.2053   9.2053  10.0681  10.0681  10.7551  10.7551
    11.3920  11.3920  11.9223  11.9223

          k =-0.5352 0.3090 0.0000 (   492 PWs)   bands (ev):

     8.0147   8.0902   8.1500   9.7890  10.0668  10.3739  10.5151  11.6699
    12.1378  12.2247  14.0804  16.0253

          k =-0.5352 0.3090-0.3045 (   492 PWs)   bands (ev):

     7.7675   7.7675   8.8037   8.8037  10.8027  10.8027  11.5977  11.5978
    12.1862  12.1862  14.2480  14.2480

          k = 0.5352 0.0000 0.0000 (   490 PWs)   bands (ev):

     8.4416   8.6653   8.9937   9.0658   9.6277  10.0482  10.3155  11.1417
    11.4135  12.0229  13.9578  19.8280

          k = 0.5352 0.0000 0.3045 (   492 PWs)   bands (ev):

     8.3742   8.3742   9.3312   9.3312   9.8422   9.8422  10.6028  10.6028
    11.9413  11.9413  15.0353  15.0353

 ------ SPIN DOWN ----------


          k = 0.0000 0.0000 0.0000 (   523 PWs)   bands (ev):

     4.4794   8.9959  11.9107  12.2144  12.8396  12.8396  13.1198  13.1198
    14.1897  14.1897  15.1155  15.1155

          k = 0.0000 0.0000-0.3045 (   494 PWs)   bands (ev):

     6.4235   6.4235  11.7073  11.7073  12.8713  12.8713  12.8713  12.8713
    14.7774  14.7774  14.7774  14.7774

          k = 0.0000 0.3090 0.0000 (   502 PWs)   bands (ev):

     6.5295  10.2924  10.8798  11.8203  12.3630  13.3221  13.4124  13.6467
    13.9417  14.1281  15.2212  17.9746

          k = 0.0000 0.3090-0.3045 (   504 PWs)   bands (ev):

     8.1467   8.1467  11.5566  11.5566  12.3561  12.3562  13.7842  13.7842
    14.6515  14.6515  14.9326  14.9326

          k = 0.0000-0.6180 0.0000 (   492 PWs)   bands (ev):

     9.6389   9.9631  10.4298  11.6915  12.5213  12.7556  13.2167  15.2284
    15.2585  15.3598  16.0629  17.5464

          k = 0.0000-0.6180-0.3045 (   492 PWs)   bands (ev):

     9.5945   9.5945  11.1273  11.1274  13.5856  13.5856  14.1091  14.1092
    15.3166  15.3167  15.5616  15.5616

          k = 0.2676 0.4635 0.0000 (   490 PWs)   bands (ev):

     9.6019  10.7377  10.9175  11.0456  12.5138  12.7733  12.9571  13.9133
    14.8982  15.0144  16.3558  20.8232

          k = 0.2676 0.4635-0.3045 (   492 PWs)   bands (ev):

    10.1644  10.1644  11.4400  11.4400  12.0471  12.0471  13.6314  13.6314
    15.0443  15.0444  16.9405  16.9405

          k = 0.2676-0.1545 0.0000 (   502 PWs)   bands (ev):

     6.5295  10.2924  10.8798  11.8203  12.3630  13.3220  13.4124  13.6467
    13.9417  14.1281  15.2212  17.9746

          k = 0.2676-0.1545-0.3045 (   504 PWs)   bands (ev):

     8.1467   8.1467  11.5566  11.5566  12.3561  12.3562  13.7842  13.7842
    14.6515  14.6515  14.9326  14.9326

          k =-0.5352 0.3090 0.0000 (   492 PWs)   bands (ev):

     9.6389   9.9631  10.4299  11.6914  12.5212  12.7555  13.2167  15.2284
    15.2585  15.3598  16.0630  17.5464

          k =-0.5352 0.3090-0.3045 (   492 PWs)   bands (ev):

     9.5945   9.5945  11.1273  11.1274  13.5856  13.5857  14.1092  14.1092
    15.3166  15.3167  15.5615  15.5616

          k = 0.5352 0.0000 0.0000 (   490 PWs)   bands (ev):

     9.6019  10.7377  10.9175  11.0456  12.5138  12.7733  12.9571  13.9133
    14.8982  15.0144  16.3558  20.8232

          k = 0.5352 0.0000 0.3045 (   492 PWs)   bands (ev):

    10.1644  10.1644  11.4400  11.4400  12.0471  12.0471  13.6314  13.6314
    15.0443  15.0444  16.9405  16.9405

     the Fermi energy is    12.6924 ev

!    total energy              =    -111.59090294 Ry
     estimated scf accuracy    <          3.7E-10 Ry
     smearing contrib. (-TS)   =       0.00051374 Ry
     internal energy E=F+TS    =    -111.59141669 Ry

     The total energy is F=E-TS. E is the sum of the following terms:
     one-electron contribution =      12.27620487 Ry
     hartree contribution      =      13.94862984 Ry
     xc contribution           =     -52.93728394 Ry
     ewald contribution        =     -84.87896746 Ry

     total magnetization       =     5.39 Bohr mag/cell
     absolute magnetization    =     5.63 Bohr mag/cell

     convergence has been achieved in   8 iterations

     Forces acting on atoms (cartesian axes, Ry/au):

     atom    1 type  1   force =     0.00000000   -0.00000059    0.00000000
     atom    2 type  1   force =     0.00000000    0.00000059    0.00000000

     Total force =     0.000001     Total SCF correction =     0.000000
     SCF correction compared to forces is large: reduce conv_thr to get better values


     Computing stress (Cartesian axis) and pressure

          total   stress  (Ry/bohr**3)                   (kbar)     P=        4.98
   0.00001036   0.00000000   0.00000000            1.52        0.00        0.00
   0.00000000   0.00001033   0.00000000            0.00        1.52        0.00
   0.00000000   0.00000000   0.00008087            0.00        0.00       11.90

     Energy error            =      9.2E-04 Ry
     Gradient error          =      5.9E-07 Ry/Bohr
     Cell gradient error     =      1.2E+01 kbar

     number of scf cycles    =   5
     number of bfgs steps    =   4

     enthalpy           old  =    -111.5899851667 Ry
     enthalpy           new  =    -111.5909029447 Ry

     CASE: enthalpy          _new < enthalpy          _old

     new trust radius        =       0.0088213882 bohr
     new conv_thr            =       0.0000000010 Ry

     new unit-cell volume =    165.33263 a.u.^3 (    24.49977 Ang^3 )
     density =      7.57010 g/cm^3

CELL_PARAMETERS (angstrom)
   2.521735507   0.000000000   0.000000000
  -1.260867753   2.183880526   0.000000000
   0.000000000   0.000000000   4.448704603

ATOMIC_POSITIONS (angstrom)
Fe               0.0000000000       -0.0000056986        0.0000000000
Fe               0.0000000000        1.4559300404        2.2243523015


     Message from routine punch:
     Nothing written, as per user request (disk_io='none')
     NEW-OLD atomic charge density approx. for the potential
     New effective cutoffs (rho, wfc):  343.61   34.33

     Check: negative core charge=   -0.000003
     Generating pointlists ...

     total cpu time spent up to now is       15.9 secs

     Self-consistent Calculation

     iteration #  1     ecut=    30.00 Ry     beta= 0.50
     Davidson diagonalization with overlap
     ethr =  1.00E-06,  avg # of iterations =  3.0

     Threshold (ethr) on eigenvalues was too large:
     Diagonalizing with lowered threshold

     Davidson diagonalization with overlap
     ethr =  1.78E-08,  avg # of iterations =  3.4

     total cpu time spent up to now is       16.4 secs

     total energy              =    -111.59092583 Ry
     estimated scf accuracy    <       0.00000334 Ry

     total magnetization       =     5.39 Bohr mag/cell
     absolute magnetization    =     5.63 Bohr mag/cell

     iteration #  2     ecut=    30.00 Ry     beta= 0.50
     Davidson diagonalization with overlap
     ethr =  2.08E-08,  avg # of iterations =  1.1

     total cpu time spent up to now is       16.6 secs

     total energy              =    -111.59092569 Ry
     estimated scf accuracy    <       0.00000181 Ry

     total magnetization       =     5.39 Bohr mag/cell
     absolute magnetization    =     5.63 Bohr mag/cell

     iteration #  3     ecut=    30.00 Ry     beta= 0.50
     Davidson diagonalization with overlap
     ethr =  1.13E-08,  avg # of iterations =  2.5

     total cpu time spent up to now is       16.8 secs

     total energy              =    -111.59092504 Ry
     estimated scf accuracy    <       0.00002456 Ry

     total magnetization       =     5.39 Bohr mag/cell
     absolute magnetization    =     5.63 Bohr mag/cell

     iteration #  4     ecut=    30.00 Ry     beta= 0.50
     Davidson diagonalization with overlap
     ethr =  1.13E-08,  avg # of iterations =  1.8

     total cpu time spent up to now is       17.1 secs

     total energy              =    -111.59092656 Ry
     estimated scf accuracy    <       0.00000005 Ry

     total magnetization       =     5.39 Bohr mag/cell
     absolute magnetization    =     5.63 Bohr mag/cell

     iteration #  5     ecut=    30.00 Ry     beta= 0.50
     Davidson diagonalization with overlap
     ethr =  3.26E-10,  avg # of iterations =  3.8

     total cpu time spent up to now is       17.3 secs

     total energy              =    -111.59092661 Ry
     estimated scf accuracy    <       0.00000006 Ry

     total magnetization       =     5.39 Bohr mag/cell
     absolute magnetization    =     5.63 Bohr mag/cell

     iteration #  6     ecut=    30.00 Ry     beta= 0.50
     Davidson diagonalization with overlap
     ethr =  3.26E-10,  avg # of iterations =  1.0

     total cpu time spent up to now is       17.5 secs

     total energy              =    -111.59092661 Ry
     estimated scf accuracy    <          3.1E-09 Ry

     total magnetization       =     5.39 Bohr mag/cell
     absolute magnetization    =     5.63 Bohr mag/cell

     iteration #  7     ecut=    30.00 Ry     beta= 0.50
     Davidson diagonalization with overlap
     ethr =  1.91E-11,  avg # of iterations =  4.8

     total cpu time spent up to now is       17.9 secs

     total energy              =    -111.59092662 Ry
     estimated scf accuracy    <          2.7E-09 Ry

     total magnetization       =     5.39 Bohr mag/cell
     absolute magnetization    =     5.63 Bohr mag/cell

     iteration #  8     ecut=    30.00 Ry     beta= 0.50
     Davidson diagonalization with overlap
     ethr =  1.66E-11,  avg # of iterations =  1.3

     Magnetic moment per site  (integrated on atomic sphere of radius R)
     atom   1 (R=0.381)  charge=  6.4722  magn=  2.7358
     atom   2 (R=0.381)  charge=  6.4724  magn=  2.7358

     total cpu time spent up to now is       18.1 secs

     End of self-consistent calculation

 ------ SPIN UP ------------


          k = 0.0000 0.0000 0.0000 (   523 PWs)   bands (ev):

     4.2625   7.6160   9.6892  10.0775  10.0775  10.2892  10.2892  10.7797
    10.7797  11.5371  11.5372  11.7153

          k = 0.0000 0.0000-0.3035 (   494 PWs)   bands (ev):

     6.1231   6.1231   9.5425   9.5425  10.0675  10.0675  10.0675  10.0675
    11.2837  11.2837  11.2837  11.2837

          k = 0.0000 0.3091 0.0000 (   502 PWs)   bands (ev):

     6.2358   8.4816   8.9431   9.5598   9.8096  10.2599  10.3677  10.7585
    11.0220  11.1578  11.6079  16.0856

          k = 0.0000 0.3091-0.3035 (   504 PWs)   bands (ev):

     7.5088   7.5088   9.1613   9.1614  10.0245  10.0246  10.7165  10.7165
    11.3417  11.3417  11.8616  11.8616

          k = 0.0000-0.6182 0.0000 (   492 PWs)   bands (ev):

     7.9781   8.0527   8.1115   9.7337  10.0331  10.3231  10.4817  11.6095
    12.0969  12.1812  14.0334  15.9757

          k = 0.0000-0.6182-0.3035 (   492 PWs)   bands (ev):

     7.7325   7.7325   8.7578   8.7578  10.7577  10.7577  11.5456  11.5457
    12.1438  12.1438  14.2022  14.2022

          k = 0.2677 0.4636 0.0000 (   490 PWs)   bands (ev):

     8.4048   8.6352   8.9590   9.0322   9.5844  10.0033  10.2649  11.0846
    11.3495  11.9735  13.9173  19.7580

          k = 0.2677 0.4636-0.3035 (   492 PWs)   bands (ev):

     8.3389   8.3389   9.2895   9.2896   9.8006   9.8007  10.5549  10.5549
    11.8857  11.8857  14.9857  14.9857

          k = 0.2677-0.1545 0.0000 (   502 PWs)   bands (ev):

     6.2358   8.4816   8.9431   9.5598   9.8096  10.2598  10.3677  10.7585
    11.0220  11.1578  11.6079  16.0856

          k = 0.2677-0.1545-0.3035 (   504 PWs)   bands (ev):

     7.5087   7.5087   9.1613   9.1614  10.0245  10.0245  10.7165  10.7165
    11.3417  11.3417  11.8616  11.8616

          k =-0.5353 0.3091 0.0000 (   492 PWs)   bands (ev):

     7.9781   8.0527   8.1116   9.7336  10.0332  10.3230  10.4816  11.6095
    12.0968  12.1812  14.0335  15.9756

          k =-0.5353 0.3091-0.3035 (   492 PWs)   bands (ev):

     7.7325   7.7325   8.7578   8.7578  10.7577  10.7577  11.5457  11.5457
    12.1437  12.1438  14.2021  14.2021

          k = 0.5353 0.0000 0.0000 (   490 PWs)   bands (ev):

     8.4048   8.6352   8.9590   9.0323   9.5844  10.0033  10.2649  11.0846
    11.3495  11.9734  13.9173  19.7580

          k = 0.5353 0.0000 0.3035 (   492 PWs)   bands (ev):

     8.3389   8.3389   9.2895   9.2896   9.8007   9.8007  10.5549  10.5549
    11.8857  11.8857  14.9857  14.9857

 ------ SPIN DOWN ----------


          k = 0.0000 0.0000 0.0000 (   523 PWs)   bands (ev):

     4.4464   8.9480  11.8321  12.1495  12.7983  12.7984  13.0730  13.0730
    14.1576  14.1577  15.0665  15.0665

          k = 0.0000 0.0000-0.3035 (   494 PWs)   bands (ev):

     6.3769   6.3769  11.6500  11.6500  12.8315  12.8315  12.8315  12.8315
    14.7321  14.7321  14.7321  14.7321

          k = 0.0000 0.3091 0.0000 (   502 PWs)   bands (ev):

     6.4975  10.2526  10.8277  11.7842  12.3074  13.2806  13.3524  13.6179
    13.9001  14.0831  15.1676  17.8989

          k = 0.0000 0.3091-0.3035 (   504 PWs)   bands (ev):

     8.1040   8.1040  11.5127  11.5127  12.3113  12.3113  13.7484  13.7484
    14.6036  14.6036  14.8746  14.8746

          k = 0.0000-0.6182 0.0000 (   492 PWs)   bands (ev):

     9.6050   9.9262  10.3942  11.6630  12.4684  12.6999  13.1900  15.1714
    15.2171  15.3156  16.0058  17.4860

          k = 0.0000-0.6182-0.3035 (   492 PWs)   bands (ev):

     9.5604   9.5604  11.0831  11.0832  13.5414  13.5414  14.0704  14.0704
    15.2735  15.2735  15.5024  15.5024

          k = 0.2677 0.4636 0.0000 (   490 PWs)   bands (ev):

     9.5724  10.7020  10.8834  11.0143  12.4749  12.7172  12.9180  13.8529
    14.8363  14.9628  16.3126  20.7514

          k = 0.2677 0.4636-0.3035 (   492 PWs)   bands (ev):

    10.1303  10.1303  11.3986  11.3986  12.0072  12.0072  13.5857  13.5857
    14.9882  14.9882  16.8898  16.8898

          k = 0.2677-0.1545 0.0000 (   502 PWs)   bands (ev):

     6.4975  10.2526  10.8277  11.7842  12.3074  13.2806  13.3525  13.6179
    13.9002  14.0831  15.1676  17.8989

          k = 0.2677-0.1545-0.3035 (   504 PWs)   bands (ev):

     8.1040   8.1040  11.5126  11.5126  12.3113  12.3113  13.7484  13.7484
    14.6036  14.6036  14.8746  14.8746

          k =-0.5353 0.3091 0.0000 (   492 PWs)   bands (ev):

     9.6050   9.9262  10.3942  11.6629  12.4683  12.6998  13.1900  15.1714
    15.2171  15.3156  16.0058  17.4860

          k =-0.5353 0.3091-0.3035 (   492 PWs)   bands (ev):

     9.5604   9.5604  11.0831  11.0831  13.5414  13.5414  14.0705  14.0705
    15.2735  15.2735  15.5023  15.5024

          k = 0.5353 0.0000 0.0000 (   490 PWs)   bands (ev):

     9.5723  10.7020  10.8834  11.0143  12.4749  12.7172  12.9180  13.8529
    14.8363  14.9628  16.3126  20.7514

          k = 0.5353 0.0000 0.3035 (   492 PWs)   bands (ev):

    10.1303  10.1303  11.3986  11.3986  12.0072  12.0072  13.5857  13.5857
    14.9882  14.9882  16.8898  16.8898

     the Fermi energy is    12.6431 ev

!    total energy              =    -111.59092662 Ry
     estimated scf accuracy    <          1.5E-11 Ry
     smearing contrib. (-TS)   =       0.00050542 Ry
     internal energy E=F+TS    =    -111.59143204 Ry

     The total energy is F=E-TS. E is the sum of the following terms:
     one-electron contribution =      12.14550215 Ry
     hartree contribution      =      13.98661521 Ry
     xc contribution           =     -52.93439313 Ry
     ewald contribution        =     -84.78915627 Ry

     total magnetization       =     5.39 Bohr mag/cell
     absolute magnetization    =     5.63 Bohr mag/cell

     convergence has been achieved in   8 iterations

     Forces acting on atoms (cartesian axes, Ry/au):

     atom    1 type  1   force =     0.00000000   -0.00000075    0.00000000
     atom    2 type  1   force =     0.00000000    0.00000075    0.00000000

     Total force =     0.000001     Total SCF correction =     0.000000
     SCF correction compared to forces is large: reduce conv_thr to get better values


     Computing stress (Cartesian axis) and pressure

          total   stress  (Ry/bohr**3)                   (kbar)     P=        0.45
   0.00000178  -0.00000000   0.00000000            0.26       -0.00        0.00
  -0.00000000   0.00000175  -0.00000000           -0.00        0.26       -0.00
   0.00000000  -0.00000000   0.00000556            0.00       -0.00        0.82

     Energy error            =      2.4E-05 Ry
     Gradient error          =      7.5E-07 Ry/Bohr
     Cell gradient error     =      8.2E-01 kbar

     number of scf cycles    =   6
     number of bfgs steps    =   5

     enthalpy           old  =    -111.5909029447 Ry
     enthalpy           new  =    -111.5909266160 Ry

     CASE: enthalpy          _new < enthalpy          _old

     new trust radius        =       0.0006113929 bohr
     new conv_thr            =       0.0000000010 Ry

     new unit-cell volume =    165.37614 a.u.^3 (    24.50622 Ang^3 )
     density =      7.56810 g/cm^3

CELL_PARAMETERS (angstrom)
   2.521768735  -0.000000000   0.000000000
  -1.260884367   2.183907288  -0.000000000
   0.000000000  -0.000000000   4.449762260

ATOMIC_POSITIONS (angstrom)
Fe               0.0000000000       -0.0000060828        0.0000000000
Fe               0.0000000000        1.4559482659        2.2248811298


     Message from routine punch:
     Nothing written, as per user request (disk_io='none')
     NEW-OLD atomic charge density approx. for the potential
     New effective cutoffs (rho, wfc):  343.61   34.33

     Check: negative core charge=   -0.000003
     Generating pointlists ...

     total cpu time spent up to now is       18.5 secs

     Self-consistent Calculation

     iteration #  1     ecut=    30.00 Ry     beta= 0.50
     Davidson diagonalization with overlap
     ethr =  1.00E-06,  avg # of iterations =  2.0

     Threshold (ethr) on eigenvalues was too large:
     Diagonalizing with lowered threshold

     Davidson diagonalization with overlap
     ethr =  1.13E-10,  avg # of iterations =  3.7

     total cpu time spent up to now is       19.0 secs

     total energy              =    -111.59092672 Ry
     estimated scf accuracy    <       0.00000002 Ry

     total magnetization       =     5.39 Bohr mag/cell
     absolute magnetization    =     5.63 Bohr mag/cell

     iteration #  2     ecut=    30.00 Ry     beta= 0.50
     Davidson diagonalization with overlap
     ethr =  9.59E-11,  avg # of iterations =  1.1

     total cpu time spent up to now is       19.2 secs

     total energy              =    -111.59092672 Ry
     estimated scf accuracy    <          6.4E-09 Ry

     total magnetization       =     5.39 Bohr mag/cell
     absolute magnetization    =     5.63 Bohr mag/cell

     iteration #  3     ecut=    30.00 Ry     beta= 0.50
     Davidson diagonalization with overlap
     ethr =  4.02E-11,  avg # of iterations =  2.6

     total cpu time spent up to now is       19.5 secs

     total energy              =    -111.59092671 Ry
     estimated scf accuracy    <       0.00000011 Ry

     total magnetization       =     5.39 Bohr mag/cell
     absolute magnetization    =     5.63 Bohr mag/cell

     iteration #  4     ecut=    30.00 Ry     beta= 0.50
     Davidson diagonalization with overlap
     ethr =  4.02E-11,  avg # of iterations =  2.3

     Magnetic moment per site  (integrated on atomic sphere of radius R)
     atom   1 (R=0.381)  charge=  6.4720  magn=  2.7359
     atom   2 (R=0.381)  charge=  6.4721  magn=  2.7359

     total cpu time spent up to now is       19.7 secs

     End of self-consistent calculation

 ------ SPIN UP ------------


          k = 0.0000 0.0000 0.0000 (   523 PWs)   bands (ev):

     4.2597   7.6124   9.6843  10.0738  10.0738  10.2851  10.2851  10.7760
    10.7760  11.5324  11.5324  11.7094

          k =-0.0000-0.0000-0.3034 (   494 PWs)   bands (ev):

     6.1194   6.1194   9.5380   9.5381  10.0639  10.0639  10.0639  10.0639
    11.2791  11.2792  11.2792  11.2792

          k = 0.0000 0.3091 0.0000 (   502 PWs)   bands (ev):

     6.2329   8.4783   8.9392   9.5564   9.8051  10.2557  10.3642  10.7538
    11.0181  11.1538  11.6030  16.0791

          k = 0.0000 0.3091-0.3034 (   504 PWs)   bands (ev):

[...]
     Cell gradient error     =      1.7E-01 kbar

     bfgs converged in   7 scf cycles and   6 bfgs steps
     (criteria: energy <  1.0E-04 Ry, force <  1.0E-03 Ry/Bohr, cell <  5.0E-01 kbar)

     End of BFGS Geometry Optimization

     Final enthalpy           =    -111.5909267212 Ry

     File /home/bond/Work/Lab4/1A/Fe_hcp_nk_4_relax/pwscf.bfgs deleted, as requested
Begin final coordinates
     new unit-cell volume =    165.37614 a.u.^3 (    24.50622 Ang^3 )
     density =      7.56810 g/cm^3

CELL_PARAMETERS (angstrom)
   2.521768735  -0.000000000   0.000000000
  -1.260884367   2.183907288  -0.000000000
   0.000000000  -0.000000000   4.449762260

ATOMIC_POSITIONS (angstrom)
Fe               0.0000000000       -0.0000060828        0.0000000000
Fe               0.0000000000        1.4559482659        2.2248811298
End final coordinates


     Message from routine punch:
     Nothing written, as per user request (disk_io='none')

     Final scf calculation at the relaxed structure.
     The G-vectors are recalculated for the final unit cell
     Results may differ from those at the preceding step.

     Parallelization info
     --------------------
     sticks:   dense  smooth     PW     G-vecs:    dense   smooth      PW
     Min         237      93     30                 7250     1841     356
     Max         238      94     31                 7251     1842     357
     Sum         475     187     61                14501     3683     713

     Using Slab Decomposition



     bravais-lattice index     =            0
     lattice parameter (alat)  =       5.1023  a.u.
     unit-cell volume          =     165.3761 (a.u.)^3
     number of atoms/cell      =            2
     number of atomic types    =            1
     number of electrons       =        16.00
     number of Kohn-Sham states=           12
     kinetic-energy cutoff     =      30.0000  Ry
     charge density cutoff     =     300.0000  Ry
     scf convergence threshold =      1.0E-09
     mixing beta               =       0.5000
     number of iterations used =            8  plain     mixing
     press convergence thresh. =      5.0E-01
     Exchange-correlation=  SLA  PW   PBE  PBE
                           (   1   4   3   4   0   0   0)

     celldm(1)=   5.102261  celldm(2)=   0.000000  celldm(3)=   0.000000
     celldm(4)=   0.000000  celldm(5)=   0.000000  celldm(6)=   0.000000

     crystal axes: (cart. coord. in units of alat)
               a(1) = (   0.933988  -0.000000   0.000000 )  
               a(2) = (  -0.466994   0.808855  -0.000000 )  
               a(3) = (   0.000000  -0.000000   1.648060 )  

     reciprocal axes: (cart. coord. in units 2 pi/alat)
               b(1) = (  1.070677  0.618158  0.000000 )  
               b(2) = (  0.000000  1.236316  0.000000 )  
               b(3) = (  0.000000  0.000000  0.606774 )  


     PseudoPot. # 1 for Fe read from file:
     /home/bond/Software/QE/qe-7.4.1/pseudo/Fe.pbe-nd-rrkjus.UPF
     MD5 check sum: 398036227a04b607635f6f5e8dfd8242
     Pseudo is Ultrasoft + core correction, Zval =  8.0
     Generated by new atomic code, or converted to UPF format
     Using radial grid of  957 points,  6 beta functions with: 
                l(1) =   0
                l(2) =   0
                l(3) =   1
                l(4) =   1
                l(5) =   2
                l(6) =   2
     Q(r) pseudized with 0 coefficients 


     atomic species   valence    mass     pseudopotential
     Fe                8.00    55.84500     Fe( 1.00)

     Starting magnetic structure 
     atomic species   magnetization
     Fe              0.423

      4 Sym. Ops. (no inversion) found



   Cartesian axes

     site n.     atom                  positions (alat units)
         1        Fe     tau(   1) = (   0.0000000  -0.0000023   0.0000000  )
         2        Fe     tau(   2) = (   0.0000000   0.5392401   0.8240300  )

     number of k points=    14  Methfessel-Paxton smearing, width (Ry)=  0.0200
                       cart. coord. in units 2pi/alat
        k(    1) = (   0.0000000   0.0000000   0.0000000), wk =   0.0312500
        k(    2) = (  -0.0000000  -0.0000000  -0.3033870), wk =   0.0312500
        k(    3) = (   0.0000000   0.3090791   0.0000000), wk =   0.0625000
        k(    4) = (   0.0000000   0.3090791  -0.3033870), wk =   0.0625000
        k(    5) = (  -0.0000000  -0.6181581  -0.0000000), wk =   0.0312500
        k(    6) = (  -0.0000000  -0.6181581  -0.3033870), wk =   0.0312500
        k(    7) = (   0.2676693   0.4636186   0.0000000), wk =   0.1250000
        k(    8) = (   0.2676693   0.4636186  -0.3033870), wk =   0.1250000
        k(    9) = (   0.2676693  -0.1545395  -0.0000000), wk =   0.1250000
        k(   10) = (   0.2676693  -0.1545395  -0.3033870), wk =   0.1250000
        k(   11) = (  -0.5353385   0.3090791   0.0000000), wk =   0.0625000
        k(   12) = (  -0.5353385   0.3090791  -0.3033870), wk =   0.0625000
        k(   13) = (   0.5353385   0.0000000   0.0000000), wk =   0.0625000
        k(   14) = (   0.5353385   0.0000000   0.3033870), wk =   0.0625000

     Dense  grid:    14501 G-vectors     FFT dimensions: (  27,  27,  48)

     Smooth grid:     3683 G-vectors     FFT dimensions: (  18,  18,  30)

     Estimated max dynamical RAM per process >      33.64 MB

     Estimated total dynamical RAM >      67.29 MB

     Check: negative core charge=   -0.000006
     Generating pointlists ...

     Initial potential from superposition of free atoms

     starting charge      15.9987, renormalised to      16.0000
     Starting wfcs are   12 randomized atomic wfcs

     total cpu time spent up to now is       20.3 secs

     Self-consistent Calculation

     iteration #  1     ecut=    30.00 Ry     beta= 0.50
     Davidson diagonalization with overlap
     c_bands:  1 eigenvalues not converged
     c_bands:  1 eigenvalues not converged
     c_bands:  1 eigenvalues not converged
     c_bands:  1 eigenvalues not converged
     c_bands:  1 eigenvalues not converged
     c_bands:  1 eigenvalues not converged
     ethr =  1.00E-06,  avg # of iterations = 15.7

     total cpu time spent up to now is       21.0 secs

     total energy              =    -111.33001127 Ry
     estimated scf accuracy    <       0.67495086 Ry

     total magnetization       =     5.12 Bohr mag/cell
     absolute magnetization    =     5.12 Bohr mag/cell

     iteration #  2     ecut=    30.00 Ry     beta= 0.50
     Davidson diagonalization with overlap
     ethr =  4.22E-03,  avg # of iterations =  2.5

     total cpu time spent up to now is       21.2 secs

     total energy              =    -111.55802540 Ry
     estimated scf accuracy    <       0.14273116 Ry

     total magnetization       =     5.38 Bohr mag/cell
     absolute magnetization    =     5.41 Bohr mag/cell

     iteration #  3     ecut=    30.00 Ry     beta= 0.50
     Davidson diagonalization with overlap
     ethr =  8.92E-04,  avg # of iterations =  1.5

     total cpu time spent up to now is       21.4 secs

     total energy              =    -111.58286953 Ry
     estimated scf accuracy    <       0.00967471 Ry

     total magnetization       =     5.40 Bohr mag/cell
     absolute magnetization    =     5.47 Bohr mag/cell

     iteration #  4     ecut=    30.00 Ry     beta= 0.50
     Davidson diagonalization with overlap
     ethr =  6.05E-05,  avg # of iterations =  3.0

     total cpu time spent up to now is       21.6 secs

     total energy              =    -111.58867669 Ry
     estimated scf accuracy    <       0.00407715 Ry

     total magnetization       =     5.41 Bohr mag/cell
     absolute magnetization    =     5.55 Bohr mag/cell

     iteration #  5     ecut=    30.00 Ry     beta= 0.50
     Davidson diagonalization with overlap
     ethr =  2.55E-05,  avg # of iterations =  2.4

     total cpu time spent up to now is       21.8 secs

     total energy              =    -111.58830326 Ry
     estimated scf accuracy    <       0.03623012 Ry

     total magnetization       =     5.39 Bohr mag/cell
     absolute magnetization    =     5.59 Bohr mag/cell

     iteration #  6     ecut=    30.00 Ry     beta= 0.50
     Davidson diagonalization with overlap
     ethr =  2.55E-05,  avg # of iterations =  1.6

     total cpu time spent up to now is       22.0 secs

     total energy              =    -111.59042841 Ry
     estimated scf accuracy    <       0.00092173 Ry

     total magnetization       =     5.39 Bohr mag/cell
     absolute magnetization    =     5.62 Bohr mag/cell

     iteration #  7     ecut=    30.00 Ry     beta= 0.50
     Davidson diagonalization with overlap
     ethr =  5.76E-06,  avg # of iterations =  1.8

     total cpu time spent up to now is       22.2 secs

     total energy              =    -111.59047814 Ry
     estimated scf accuracy    <       0.00014641 Ry

     total magnetization       =     5.39 Bohr mag/cell
     absolute magnetization    =     5.63 Bohr mag/cell

     iteration #  8     ecut=    30.00 Ry     beta= 0.50
     Davidson diagonalization with overlap
     ethr =  9.15E-07,  avg # of iterations =  3.0

     total cpu time spent up to now is       22.5 secs

     total energy              =    -111.59052999 Ry
     estimated scf accuracy    <       0.00000573 Ry

     total magnetization       =     5.39 Bohr mag/cell
     absolute magnetization    =     5.63 Bohr mag/cell

     iteration #  9     ecut=    30.00 Ry     beta= 0.50
     Davidson diagonalization with overlap
     ethr =  3.58E-08,  avg # of iterations =  5.7

     total cpu time spent up to now is       22.8 secs

     total energy              =    -111.59053692 Ry
     estimated scf accuracy    <       0.00000199 Ry

     total magnetization       =     5.39 Bohr mag/cell
     absolute magnetization    =     5.63 Bohr mag/cell

     iteration # 10     ecut=    30.00 Ry     beta= 0.50
     Davidson diagonalization with overlap
     ethr =  1.24E-08,  avg # of iterations =  3.9

     total cpu time spent up to now is       23.0 secs

     total energy              =    -111.59053789 Ry
     estimated scf accuracy    <       0.00000026 Ry

     total magnetization       =     5.39 Bohr mag/cell
     absolute magnetization    =     5.63 Bohr mag/cell

     iteration # 11     ecut=    30.00 Ry     beta= 0.50
     Davidson diagonalization with overlap
     ethr =  1.64E-09,  avg # of iterations =  4.8

     total cpu time spent up to now is       23.3 secs

     total energy              =    -111.59053800 Ry
     estimated scf accuracy    <       0.00000018 Ry

     total magnetization       =     5.39 Bohr mag/cell
     absolute magnetization    =     5.63 Bohr mag/cell

     iteration # 12     ecut=    30.00 Ry     beta= 0.50
     Davidson diagonalization with overlap
     ethr =  1.12E-09,  avg # of iterations =  2.0

     Magnetic moment per site  (integrated on atomic sphere of radius R)
     atom   1 (R=0.381)  charge=  6.4711  magn=  2.7358
     atom   2 (R=0.381)  charge=  6.4711  magn=  2.7359

     total cpu time spent up to now is       23.5 secs

     End of self-consistent calculation

 ------ SPIN UP ------------


          k = 0.0000 0.0000 0.0000 (   441 PWs)   bands (ev):

     4.2602   7.6125   9.6859  10.0762  10.0763  10.2878  10.2878  10.7784
    10.7785  11.5345  11.5345  11.7103

          k =-0.0000-0.0000-0.3034 (   434 PWs)   bands (ev):

     6.1196   6.1196   9.5405   9.5406  10.0658  10.0658  10.0658  10.0658
    11.2809  11.2809  11.2809  11.2809

          k = 0.0000 0.3091 0.0000 (   463 PWs)   bands (ev):

     6.2335   8.4792   8.9404   9.5577   9.8068  10.2572  10.3660  10.7550
    11.0193  11.1554  11.6048  16.0803

          k = 0.0000 0.3091-0.3034 (   454 PWs)   bands (ev):

     7.5060   7.5060   9.1593   9.1593  10.0219  10.0219  10.7144  10.7144
    11.3390  11.3390  11.8585  11.8585

          k =-0.0000-0.6182-0.0000 (   460 PWs)   bands (ev):

     7.9760   8.0504   8.1101   9.7308  10.0315  10.3206  10.4798  11.6061
    12.0941  12.1781  14.0299  15.9713

          k =-0.0000-0.6182-0.3034 (   476 PWs)   bands (ev):

     7.7304   7.7304   8.7550   8.7550  10.7554  10.7554  11.5427  11.5427
    12.1407  12.1407  14.1986  14.1986

          k = 0.2677 0.4636 0.0000 (   456 PWs)   bands (ev):

     8.4033   8.6334   8.9572   9.0305   9.5820  10.0010  10.2617  11.0814
    11.3459  11.9704  13.9140  19.7524

          k = 0.2677 0.4636-0.3034 (   456 PWs)   bands (ev):

     8.3372   8.3372   9.2873   9.2874   9.7983   9.7983  10.5521  10.5521
    11.8826  11.8826  14.9819  14.9819

          k = 0.2677-0.1545-0.0000 (   463 PWs)   bands (ev):

     6.2335   8.4792   8.9404   9.5576   9.8068  10.2572  10.3660  10.7550
    11.0193  11.1554  11.6048  16.0803

          k = 0.2677-0.1545-0.3034 (   454 PWs)   bands (ev):

     7.5060   7.5060   9.1592   9.1593  10.0219  10.0219  10.7144  10.7144
    11.3390  11.3390  11.8585  11.8585

          k =-0.5353 0.3091 0.0000 (   460 PWs)   bands (ev):

     7.9760   8.0505   8.1102   9.7308  10.0315  10.3206  10.4798  11.6061
    12.0941  12.1780  14.0299  15.9712

          k =-0.5353 0.3091-0.3034 (   476 PWs)   bands (ev):

     7.7304   7.7304   8.7550   8.7550  10.7554  10.7554  11.5427  11.5427
    12.1406  12.1407  14.1985  14.1985

          k = 0.5353 0.0000 0.0000 (   456 PWs)   bands (ev):

     8.4033   8.6333   8.9572   9.0306   9.5820  10.0009  10.2617  11.0814
    11.3459  11.9704  13.9140  19.7524

          k = 0.5353 0.0000 0.3034 (   456 PWs)   bands (ev):

     8.3372   8.3372   9.2873   9.2874   9.7983   9.7983  10.5521  10.5521
    11.8826  11.8826  14.9818  14.9818

 ------ SPIN DOWN ----------


          k = 0.0000 0.0000 0.0000 (   441 PWs)   bands (ev):

     4.4437   8.9440  11.8271  12.1463  12.7975  12.7976  13.0722  13.0722
    14.1572  14.1572  15.0642  15.0642

          k =-0.0000-0.0000-0.3034 (   434 PWs)   bands (ev):

     6.3730   6.3731  11.6482  11.6482  12.8300  12.8301  12.8301  12.8301
    14.7296  14.7297  14.7297  14.7297

          k = 0.0000 0.3091 0.0000 (   463 PWs)   bands (ev):

     6.4948  10.2496  10.8246  11.7821  12.3047  13.2782  13.3489  13.6165
    13.8974  14.0807  15.1647  17.8942

          k = 0.0000 0.3091-0.3034 (   454 PWs)   bands (ev):

     8.1006   8.1007  11.5108  11.5108  12.3089  12.3089  13.7463  13.7463
    14.6012  14.6012  14.8719  14.8719

          k =-0.0000-0.6182-0.0000 (   460 PWs)   bands (ev):

     9.6028   9.9239  10.3932  11.6611  12.4657  12.6973  13.1888  15.1682
    15.2144  15.3124  16.0022  17.4810

          k =-0.0000-0.6182-0.3034 (   476 PWs)   bands (ev):

     9.5582   9.5583  11.0803  11.0803  13.5385  13.5385  14.0685  14.0685
    15.2704  15.2704  15.4985  15.4985

          k = 0.2677 0.4636 0.0000 (   456 PWs)   bands (ev):

     9.5700  10.7008  10.8819  11.0127  12.4727  12.7136  12.9159  13.8496
    14.8328  14.9599  16.3094  20.7454

          k = 0.2677 0.4636-0.3034 (   456 PWs)   bands (ev):

    10.1283  10.1283  11.3963  11.3963  12.0051  12.0051  13.5831  13.5831
    14.9853  14.9853  16.8861  16.8861

          k = 0.2677-0.1545-0.0000 (   463 PWs)   bands (ev):

     6.4948  10.2496  10.8246  11.7820  12.3047  13.2781  13.3489  13.6166
    13.8975  14.0807  15.1647  17.8942

          k = 0.2677-0.1545-0.3034 (   454 PWs)   bands (ev):

     8.1006   8.1007  11.5108  11.5108  12.3088  12.3089  13.7464  13.7464
    14.6013  14.6013  14.8719  14.8719

          k =-0.5353 0.3091 0.0000 (   460 PWs)   bands (ev):

     9.6028   9.9239  10.3932  11.6611  12.4656  12.6973  13.1888  15.1682
    15.2144  15.3124  16.0022  17.4810

          k =-0.5353 0.3091-0.3034 (   476 PWs)   bands (ev):

     9.5582   9.5582  11.0803  11.0803  13.5384  13.5385  14.0685  14.0685
    15.2704  15.2704  15.4984  15.4984

          k = 0.5353 0.0000 0.0000 (   456 PWs)   bands (ev):

     9.5699  10.7008  10.8819  11.0127  12.4727  12.7136  12.9159  13.8496
    14.8328  14.9599  16.3094  20.7455

          k = 0.5353 0.0000 0.3034 (   456 PWs)   bands (ev):

    10.1283  10.1283  11.3963  11.3963  12.0051  12.0051  13.5831  13.5831
    14.9853  14.9853  16.8861  16.8861

     the Fermi energy is    12.6404 ev

!    total energy              =    -111.59053804 Ry
     estimated scf accuracy    <          5.2E-10 Ry
     smearing contrib. (-TS)   =       0.00050510 Ry
     internal energy E=F+TS    =    -111.59104314 Ry

     The total energy is F=E-TS. E is the sum of the following terms:
     one-electron contribution =      12.13476446 Ry
     hartree contribution      =      13.99057332 Ry
     xc contribution           =     -52.93512602 Ry
     ewald contribution        =     -84.78125489 Ry

     total magnetization       =     5.39 Bohr mag/cell
     absolute magnetization    =     5.63 Bohr mag/cell

     convergence has been achieved in  12 iterations

     Forces acting on atoms (cartesian axes, Ry/au):

     atom    1 type  1   force =    -0.00000000   -0.00000032   -0.00000000
     atom    2 type  1   force =     0.00000000    0.00000032    0.00000000

     Total force =     0.000000     Total SCF correction =     0.000002
     SCF correction compared to forces is large: reduce conv_thr to get better values


     Computing stress (Cartesian axis) and pressure

          total   stress  (Ry/bohr**3)                   (kbar)     P=       -1.45
  -0.00001469  -0.00000000  -0.00000000           -2.16       -0.00       -0.00
  -0.00000000  -0.00001474  -0.00000000           -0.00       -2.17       -0.00
  -0.00000000  -0.00000000  -0.00000024           -0.00       -0.00       -0.04

     Message from routine punch:
     Nothing written, as per user request (disk_io='none')

     init_run     :      0.78s CPU      0.80s WALL (       2 calls)
     electrons    :     18.01s CPU     19.70s WALL (       8 calls)
     update_pot   :      0.11s CPU      0.12s WALL (       6 calls)
     forces       :      0.47s CPU      0.51s WALL (       8 calls)
     stress       :      2.45s CPU      2.47s WALL (       8 calls)

     Called by init_run:
     wfcinit      :      0.11s CPU      0.11s WALL (       2 calls)
     potinit      :      0.17s CPU      0.17s WALL (       2 calls)
     hinit0       :      0.44s CPU      0.44s WALL (       2 calls)

     Called by electrons:
     c_bands      :     10.73s CPU     12.13s WALL (      74 calls)
     sum_band     :      4.41s CPU      4.65s WALL (      74 calls)
     v_of_rho     :      1.24s CPU      1.26s WALL (      80 calls)
     newd         :      1.77s CPU      1.79s WALL (      80 calls)
     mix_rho      :      0.08s CPU      0.09s WALL (      74 calls)

     Called by c_bands:
     init_us_2    :      0.26s CPU      0.29s WALL (    4648 calls)
     cegterg      :     10.00s CPU     11.30s WALL (    2072 calls)

     Called by *egterg:
     cdiaghg      :      0.91s CPU      1.03s WALL (    8178 calls)
     h_psi        :      8.15s CPU      9.20s WALL (    8458 calls)
     s_psi        :      0.16s CPU      0.18s WALL (    8458 calls)
     g_psi        :      0.05s CPU      0.05s WALL (    6330 calls)

     Called by h_psi:
     h_psi:calbec :      0.29s CPU      0.33s WALL (    8458 calls)
     vloc_psi     :      7.63s CPU      8.62s WALL (    8458 calls)
     add_vuspsi   :      0.17s CPU      0.19s WALL (    8458 calls)

     General routines
     calbec       :      0.52s CPU      0.58s WALL (   14338 calls)
     fft          :      0.74s CPU      0.75s WALL (    2314 calls)
     ffts         :      0.13s CPU      0.14s WALL (     308 calls)
     fftw         :      7.79s CPU      8.80s WALL (  169766 calls)
     interpolate  :      0.17s CPU      0.17s WALL (     160 calls)

     Parallel routines

     PWSCF        :     22.08s CPU     23.85s WALL


   This run was terminated on:  17:51:40  20Oct2025            

=------------------------------------------------------------------------------=
   JOB DONE.
=------------------------------------------------------------------------------=
