
     Program PWSCF v.7.4.1 starts on 21Oct2025 at 13: 6:11 

     This program is part of the open-source Quantum ESPRESSO suite
     for quantum simulation of materials; please cite
         "P. Giannozzi et al., J. Phys.:Condens. Matter 21 395502 (2009);
         "P. Giannozzi et al., J. Phys.:Condens. Matter 29 465901 (2017);
         "P. Giannozzi et al., J. Chem. Phys. 152 154105 (2020);
          URL http://www.quantum-espresso.org", 
     in publications or presentations arising from this work. More details at
     http://www.quantum-espresso.org/quote

     Parallel version (MPI), running on     2 processors

     MPI processes distributed on     1 nodes
     691 MiB available memory on the printing compute node when the environment starts

     Waiting for input...
     Reading input from standard input
Warning: card &CELL ignored
Warning: card / ignored

     Current dimensions of program PWSCF are:
     Max number of different atomic species (ntypx) = 10
     Max number of k-points (npk) =  40000
     Max angular momentum in pseudopotentials (lmaxx) =  4
     file O.pz-rrkjus.UPF: wavefunction(s)  2S renormalized
     Message from routine setup:
     using ibrav=0 with symmetry is DISCOURAGED, use correct ibrav instead

     R & G space division:  proc/nbgrp/npool/nimage =       2
     Subspace diagonalization in iterative solution of the eigenvalue problem:
     a serial algorithm will be used


     Parallelization info
     --------------------
     sticks:   dense  smooth     PW     G-vecs:    dense   smooth      PW
     Min         516     254     74                12286     4354     709
     Max         517     255     75                12287     4355     710
     Sum        1033     509    149                24573     8709    1419

     Using Slab Decomposition



     bravais-lattice index     =            0
     lattice parameter (alat)  =       7.3227  a.u.
     unit-cell volume          =     392.6555 (a.u.)^3
     number of atoms/cell      =            5
     number of atomic types    =            3
     number of electrons       =        44.00
     number of Kohn-Sham states=           22
     kinetic-energy cutoff     =      30.0000  Ry
     charge density cutoff     =     240.0000  Ry
     scf convergence threshold =      1.0E-07
     mixing beta               =       0.7000
     number of iterations used =            8  plain     mixing
     energy convergence thresh.=      1.0E-04
     force convergence thresh. =      1.0E-03
     Exchange-correlation= SLA  PZ   NOGX NOGC
                           (   1   1   0   0   0   0   0)
     nstep                     =           50


     celldm(1)=   7.322689  celldm(2)=   0.000000  celldm(3)=   0.000000
     celldm(4)=   0.000000  celldm(5)=   0.000000  celldm(6)=   0.000000

     crystal axes: (cart. coord. in units of alat)
               a(1) = (   1.000000   0.000000   0.000000 )  
               a(2) = (   0.000000   1.000000   0.000000 )  
               a(3) = (   0.000000   0.000000   1.000000 )  

     reciprocal axes: (cart. coord. in units 2 pi/alat)
               b(1) = (  1.000000  0.000000  0.000000 )  
               b(2) = (  0.000000  1.000000  0.000000 )  
               b(3) = (  0.000000  0.000000  1.000000 )  


     PseudoPot. # 1 for O  read from file:
     /home/bond/Software/QE/qe-7.4.1/pseudo/O.pz-rrkjus.UPF
     MD5 check sum: 24fb942a68ef5d262e498166c462ef4a
     Pseudo is Ultrasoft, Zval =  6.0
     Generated by new atomic code, or converted to UPF format
     Using radial grid of 1269 points,  4 beta functions with: 
                l(1) =   0
                l(2) =   0
                l(3) =   1
                l(4) =   1
     Q(r) pseudized with 0 coefficients 


     PseudoPot. # 2 for Pb read from file:
     /home/bond/Software/QE/qe-7.4.1/pseudo/Pb.pz-d-van.UPF
     MD5 check sum: 4e1e5920686a026ae26139ac417581ff
     Pseudo is Ultrasoft, Zval = 14.0
     Generated by new atomic code, or converted to UPF format
     Using radial grid of  899 points,  6 beta functions with: 
                l(1) =   0
                l(2) =   0
                l(3) =   1
                l(4) =   1
                l(5) =   2
                l(6) =   2
     Q(r) pseudized with  8 coefficients,  rinner =    1.000   1.000   1.000
                                                       1.000   1.000

     PseudoPot. # 3 for Ti read from file:
     /home/bond/Software/QE/qe-7.4.1/pseudo/Ti.pz-sp-van_ak.UPF
     MD5 check sum: 545d0e6e05332b8871a8093f427cb0ca
     Pseudo is Ultrasoft, Zval = 12.0
     Generated by new atomic code, or converted to UPF format
     Using radial grid of  851 points,  6 beta functions with: 
                l(1) =   0
                l(2) =   0
                l(3) =   1
                l(4) =   1
                l(5) =   2
                l(6) =   2
     Q(r) pseudized with  8 coefficients,  rinner =    1.000   1.000   1.000
                                                       1.000   1.000

     atomic species   valence    mass     pseudopotential
     O                 6.00    15.99900     O ( 1.00)
     Pb               14.00   207.20000     Pb( 1.00)
     Ti               12.00    47.86700     Ti( 1.00)

      8 Sym. Ops. (no inversion) found



   Cartesian axes

     site n.     atom                  positions (alat units)
         1        Pb     tau(   1) = (   0.0000000   0.0000000   0.0000000  )
         2        Ti     tau(   2) = (   0.5000000   0.5000000   0.5300000  )
         3        O      tau(   3) = (   0.0000000   0.5000000   0.5000000  )
         4        O      tau(   4) = (   0.5000000   0.0000000   0.5000000  )
         5        O      tau(   5) = (   0.5000000   0.5000000   0.0000000  )

     number of k points=     6
                       cart. coord. in units 2pi/alat
        k(    1) = (   0.1250000   0.1250000   0.1250000), wk =   0.2500000
        k(    2) = (   0.1250000   0.1250000   0.3750000), wk =   0.2500000
        k(    3) = (   0.1250000   0.3750000   0.3750000), wk =   0.5000000
        k(    4) = (   0.3750000   0.3750000   0.3750000), wk =   0.2500000
        k(    5) = (   0.3750000  -0.1250000   0.1250000), wk =   0.5000000
        k(    6) = (   0.3750000  -0.3750000   0.1250000), wk =   0.2500000

     Dense  grid:    24573 G-vectors     FFT dimensions: (  40,  40,  40)

     Smooth grid:     8709 G-vectors     FFT dimensions: (  25,  25,  25)

     Estimated max dynamical RAM per process >      51.19 MB

     Estimated total dynamical RAM >     102.38 MB

     Initial potential from superposition of free atoms

     starting charge      42.9982, renormalised to      44.0000
     Starting wfcs are   31 randomized atomic wfcs

     total cpu time spent up to now is        1.7 secs

     Self-consistent Calculation

     iteration #  1     ecut=    30.00 Ry     beta= 0.70
     Davidson diagonalization with overlap
     ethr =  1.00E-02,  avg # of iterations =  2.0

     total cpu time spent up to now is        2.2 secs

     total energy              =    -332.62228658 Ry
     estimated scf accuracy    <       1.09186168 Ry

     iteration #  2     ecut=    30.00 Ry     beta= 0.70
     Davidson diagonalization with overlap
     ethr =  2.48E-03,  avg # of iterations =  6.3

     total cpu time spent up to now is        2.7 secs

     total energy              =    -332.43016771 Ry
     estimated scf accuracy    <       3.86589814 Ry

     iteration #  3     ecut=    30.00 Ry     beta= 0.70
     Davidson diagonalization with overlap
     ethr =  2.48E-03,  avg # of iterations =  5.2

     total cpu time spent up to now is        3.2 secs

     total energy              =    -333.15762321 Ry
     estimated scf accuracy    <       0.20753815 Ry

     iteration #  4     ecut=    30.00 Ry     beta= 0.70
     Davidson diagonalization with overlap
     ethr =  4.72E-04,  avg # of iterations =  2.0

     total cpu time spent up to now is        3.6 secs

     total energy              =    -333.15519971 Ry
     estimated scf accuracy    <       0.05514073 Ry

     iteration #  5     ecut=    30.00 Ry     beta= 0.70
     Davidson diagonalization with overlap
     ethr =  1.25E-04,  avg # of iterations =  4.8

     total cpu time spent up to now is        4.0 secs

     total energy              =    -333.18131301 Ry
     estimated scf accuracy    <       0.02519878 Ry

     iteration #  6     ecut=    30.00 Ry     beta= 0.70
     Davidson diagonalization with overlap
     ethr =  5.73E-05,  avg # of iterations =  2.0

     total cpu time spent up to now is        4.5 secs

     total energy              =    -333.17957831 Ry
     estimated scf accuracy    <       0.00973460 Ry

     iteration #  7     ecut=    30.00 Ry     beta= 0.70
     Davidson diagonalization with overlap
     ethr =  2.21E-05,  avg # of iterations =  4.3

     total cpu time spent up to now is        5.0 secs

     total energy              =    -333.18227618 Ry
     estimated scf accuracy    <       0.00017773 Ry

     iteration #  8     ecut=    30.00 Ry     beta= 0.70
     Davidson diagonalization with overlap
     ethr =  4.04E-07,  avg # of iterations =  5.0

     total cpu time spent up to now is        5.4 secs

     total energy              =    -333.18231504 Ry
     estimated scf accuracy    <       0.00030113 Ry

     iteration #  9     ecut=    30.00 Ry     beta= 0.70
     Davidson diagonalization with overlap
     ethr =  4.04E-07,  avg # of iterations =  1.0

     total cpu time spent up to now is        5.8 secs

     total energy              =    -333.18226224 Ry
     estimated scf accuracy    <       0.00020312 Ry

     iteration # 10     ecut=    30.00 Ry     beta= 0.70
     Davidson diagonalization with overlap
     ethr =  4.04E-07,  avg # of iterations =  3.5

     total cpu time spent up to now is        6.2 secs

     total energy              =    -333.18227473 Ry
     estimated scf accuracy    <       0.00002810 Ry

     iteration # 11     ecut=    30.00 Ry     beta= 0.70
     Davidson diagonalization with overlap
     ethr =  6.39E-08,  avg # of iterations =  5.0

     total cpu time spent up to now is        6.7 secs

     total energy              =    -333.18228763 Ry
     estimated scf accuracy    <       0.00000378 Ry

     iteration # 12     ecut=    30.00 Ry     beta= 0.70
     Davidson diagonalization with overlap
     ethr =  8.59E-09,  avg # of iterations =  3.2

     total cpu time spent up to now is        7.1 secs

     total energy              =    -333.18228627 Ry
     estimated scf accuracy    <       0.00000383 Ry

     iteration # 13     ecut=    30.00 Ry     beta= 0.70
     Davidson diagonalization with overlap
     ethr =  8.59E-09,  avg # of iterations =  4.3

     total cpu time spent up to now is        7.6 secs

     End of self-consistent calculation

          k = 0.1250 0.1250 0.1250 (  1090 PWs)   bands (ev):

   -44.5801 -21.2417 -21.1860 -21.1849  -6.3244  -5.2737  -5.2165  -3.9702
    -3.9641  -3.9518  -3.7848  -3.7782   4.6508   7.2996   7.3295   8.0906
     9.0486   9.1203   9.7635   9.8623  10.0418  10.1745

          k = 0.1250 0.1250 0.3750 (  1095 PWs)   bands (ev):

   -44.5789 -21.3003 -21.1837 -21.1828  -5.8880  -5.1237  -5.0916  -4.0304
    -3.9654  -3.9474  -3.8766  -3.7552   3.8924   6.8315   7.2576   7.8638
     8.4940   8.6639   9.4274   9.9185  10.1740  10.9167

          k = 0.1250 0.3750 0.3750 (  1087 PWs)   bands (ev):

   -44.5776 -21.2967 -21.2396 -21.1811  -5.6738  -5.0290  -4.9263  -4.0038
    -3.9590  -3.9051  -3.8139  -3.6524   3.5399   6.7096   6.9502   7.1990
     7.5141   8.7206   9.3986   9.5230  10.0519  10.6995

          k = 0.3750 0.3750 0.3750 (  1082 PWs)   bands (ev):

   -44.5763 -21.2942 -21.2373 -21.2370  -5.3090  -5.1445  -5.1048  -3.9163
    -3.9089  -3.6254  -3.5604  -3.5422   4.1651   5.9182   5.9677   6.7097
     7.0952   7.1294   7.9942  10.6374  10.6864  10.7708

          k = 0.3750-0.1250 0.1250 (  1095 PWs)   bands (ev):

   -44.5789 -21.2435 -21.2393 -21.1833  -5.9279  -5.1398  -5.0536  -4.0273
    -3.9613  -3.9494  -3.8838  -3.7495   3.9166   6.8855   7.3651   7.8584
     8.4502   8.7921   9.3229   9.9260  10.0490  10.8574

          k = 0.3750-0.3750 0.1250 (  1087 PWs)   bands (ev):

   -44.5776 -21.2405 -21.2393 -21.2370  -5.7488  -4.9790  -4.9035  -3.9972
    -3.9568  -3.8981  -3.8111  -3.6785   3.5619   6.8419   6.8872   7.1704
     7.4747   8.6904   9.4889   9.5078  10.0341  10.7716

     highest occupied level (ev):    10.9167

!    total energy              =    -333.18228703 Ry
     estimated scf accuracy    <       0.00000002 Ry

     The total energy is the sum of the following terms:
     one-electron contribution =     -76.81573038 Ry
     hartree contribution      =      66.41436098 Ry
     xc contribution           =     -49.66281602 Ry
     ewald contribution        =    -273.11810161 Ry

     convergence has been achieved in  13 iterations

     Forces acting on atoms (cartesian axes, Ry/au):

     atom    1 type  2   force =     0.00000000    0.00000000    0.01312753
     atom    2 type  3   force =     0.00000000    0.00000000   -0.02649852
     atom    3 type  1   force =     0.00000000    0.00000000    0.00017082
     atom    4 type  1   force =     0.00000000    0.00000000    0.00017082
     atom    5 type  1   force =     0.00000000    0.00000000    0.01302936

     Total force =     0.013032     Total SCF correction =     0.000059


     Computing stress (Cartesian axis) and pressure

          total   stress  (Ry/bohr**3)                   (kbar)     P=       -5.74
  -0.00008664   0.00000000   0.00000000          -12.75        0.00        0.00
   0.00000000  -0.00008664   0.00000000            0.00      -12.75        0.00
   0.00000000   0.00000000   0.00005630            0.00        0.00        8.28


     BFGS Geometry Optimization
     Energy error            =      1.6E-04 Ry
     Gradient error          =      1.3E-02 Ry/Bohr

     number of scf cycles    =   1
     number of bfgs steps    =   0

     energy             new  =    -333.1822870299 Ry

     new trust radius        =       0.0130293560 bohr
     new conv_thr            =       0.0000001000 Ry


ATOMIC_POSITIONS (angstrom)
Pb               0.0000000000        0.0000000000        0.0000000000    0   0   0
Ti               1.9375000000        1.9375000000        2.0537500000    0   0   0
O                0.0000000000        1.9375000000        1.9375903928
O                1.9375000000        0.0000000000        1.9375903928
O                1.9375000000        1.9375000000        0.0068948383


     Message from routine punch:
     Nothing written, as per user request (disk_io='none')
     NEW-OLD atomic charge density approx. for the potential

     total cpu time spent up to now is        9.1 secs

     Self-consistent Calculation

     iteration #  1     ecut=    30.00 Ry     beta= 0.70
     Davidson diagonalization with overlap
     ethr =  1.00E-06,  avg # of iterations =  4.2

     Threshold (ethr) on eigenvalues was too large:
     Diagonalizing with lowered threshold

     Davidson diagonalization with overlap
     ethr =  6.48E-08,  avg # of iterations =  3.7

     total cpu time spent up to now is        9.9 secs

     total energy              =    -333.18242151 Ry
     estimated scf accuracy    <       0.00003303 Ry

     iteration #  2     ecut=    30.00 Ry     beta= 0.70
     Davidson diagonalization with overlap
     ethr =  7.51E-08,  avg # of iterations =  4.7

     total cpu time spent up to now is       10.3 secs

     total energy              =    -333.18242447 Ry
     estimated scf accuracy    <       0.00002349 Ry

     iteration #  3     ecut=    30.00 Ry     beta= 0.70
     Davidson diagonalization with overlap
     ethr =  5.34E-08,  avg # of iterations =  4.7

     total cpu time spent up to now is       10.7 secs

     total energy              =    -333.18242998 Ry
     estimated scf accuracy    <       0.00000626 Ry

     iteration #  4     ecut=    30.00 Ry     beta= 0.70
     Davidson diagonalization with overlap
     ethr =  1.42E-08,  avg # of iterations =  3.8

     total cpu time spent up to now is       11.1 secs

     total energy              =    -333.18243102 Ry
     estimated scf accuracy    <       0.00000017 Ry

     iteration #  5     ecut=    30.00 Ry     beta= 0.70
     Davidson diagonalization with overlap
     ethr =  3.89E-10,  avg # of iterations =  5.7

     total cpu time spent up to now is       11.6 secs

     total energy              =    -333.18243120 Ry
     estimated scf accuracy    <       0.00000031 Ry

     iteration #  6     ecut=    30.00 Ry     beta= 0.70
     Davidson diagonalization with overlap
     ethr =  3.89E-10,  avg # of iterations =  3.3

     total cpu time spent up to now is       12.0 secs

     End of self-consistent calculation

          k = 0.1250 0.1250 0.1250 (  1090 PWs)   bands (ev):

   -44.5915 -21.2463 -21.1974 -21.1964  -6.3250  -5.2708  -5.2188  -3.9678
    -3.9622  -3.9499  -3.7827  -3.7767   4.6527   7.3004   7.3274   8.0891
     9.0566   9.1256   9.7757   9.8636  10.0387  10.1759

          k = 0.1250 0.1250 0.3750 (  1095 PWs)   bands (ev):

   -44.5903 -21.3048 -21.1952 -21.1942  -5.8905  -5.1191  -5.0944  -4.0281
    -3.9630  -3.9456  -3.8751  -3.7529   3.8966   6.8318   7.2624   7.8597
     8.4944   8.6737   9.4265   9.9200  10.1709  10.9159

          k = 0.1250 0.3750 0.3750 (  1087 PWs)   bands (ev):

   -44.5890 -21.3012 -21.2510 -21.1926  -5.6761  -5.0251  -4.9278  -4.0015
    -3.9568  -3.9030  -3.8119  -3.6513   3.5427   6.7150   6.9460   7.1983
     7.5132   8.7181   9.4069   9.5211  10.0546  10.7027

          k = 0.3750 0.3750 0.3750 (  1082 PWs)   bands (ev):

   -44.5877 -21.2986 -21.2486 -21.2484  -5.3077  -5.1432  -5.1067  -3.9139
    -3.9071  -3.6230  -3.5584  -3.5416   4.1670   5.9226   5.9675   6.7083
     7.0943   7.1248   7.9966  10.6430  10.6897  10.7695

          k = 0.3750-0.1250 0.1250 (  1095 PWs)   bands (ev):

   -44.5903 -21.2548 -21.2440 -21.1948  -5.9272  -5.1382  -5.0560  -4.0253
    -3.9592  -3.9474  -3.8816  -3.7479   3.9184   6.8826   7.3657   7.8582
     8.4507   8.7921   9.3304   9.9283  10.0546  10.8606

          k = 0.3750-0.3750 0.1250 (  1087 PWs)   bands (ev):

   -44.5890 -21.2517 -21.2506 -21.2418  -5.7447  -4.9810  -4.9061  -3.9954
    -3.9548  -3.8966  -3.8094  -3.6754   3.5623   6.8396   6.8852   7.1759
     7.4804   8.6911   9.4901   9.5070  10.0353  10.7694

     highest occupied level (ev):    10.9159

!    total energy              =    -333.18243151 Ry
     estimated scf accuracy    <       0.00000010 Ry

     The total energy is the sum of the following terms:
     one-electron contribution =     -76.74829189 Ry
     hartree contribution      =      66.37905887 Ry
     xc contribution           =     -49.66036166 Ry
     ewald contribution        =    -273.15283684 Ry

     convergence has been achieved in   6 iterations

     Forces acting on atoms (cartesian axes, Ry/au):

     atom    1 type  2   force =     0.00000000    0.00000000    0.01332831
     atom    2 type  3   force =     0.00000000    0.00000000   -0.02468533
     atom    3 type  1   force =     0.00000000    0.00000000    0.00135923
     atom    4 type  1   force =     0.00000000    0.00000000    0.00135923
     atom    5 type  1   force =     0.00000000    0.00000000    0.00863856

     Total force =     0.008850     Total SCF correction =     0.000086


     Computing stress (Cartesian axis) and pressure

          total   stress  (Ry/bohr**3)                   (kbar)     P=       -6.51
  -0.00008575   0.00000000   0.00000000          -12.61        0.00        0.00
   0.00000000  -0.00008575   0.00000000            0.00      -12.61        0.00
   0.00000000   0.00000000   0.00003872            0.00        0.00        5.70

     Energy error            =      1.4E-04 Ry
     Gradient error          =      8.6E-03 Ry/Bohr

     number of scf cycles    =   2
     number of bfgs steps    =   1

     energy             old  =    -333.1822870299 Ry
     energy             new  =    -333.1824315131 Ry

     CASE: energy            _new < energy            _old

     new trust radius        =       0.0143322917 bohr
     new conv_thr            =       0.0000000014 Ry


ATOMIC_POSITIONS (angstrom)
Pb               0.0000000000        0.0000000000        0.0000000000    0   0   0
Ti               1.9375000000        1.9375000000        2.0537500000    0   0   0
O                0.0000000000        1.9375000000        1.9387004511
O                1.9375000000        0.0000000000        1.9387004511
O                1.9375000000        1.9375000000        0.0144791604


     Message from routine punch:
     Nothing written, as per user request (disk_io='none')
     NEW-OLD atomic charge density approx. for the potential

     total cpu time spent up to now is       13.5 secs

     Self-consistent Calculation

     iteration #  1     ecut=    30.00 Ry     beta= 0.70
     Davidson diagonalization with overlap
     ethr =  1.00E-06,  avg # of iterations =  4.3

     Threshold (ethr) on eigenvalues was too large:
     Diagonalizing with lowered threshold

     Davidson diagonalization with overlap
     ethr =  9.20E-08,  avg # of iterations =  3.5

     total cpu time spent up to now is       14.3 secs

     total energy              =    -333.18251485 Ry
     estimated scf accuracy    <       0.00004728 Ry

     iteration #  2     ecut=    30.00 Ry     beta= 0.70
     Davidson diagonalization with overlap
     ethr =  1.07E-07,  avg # of iterations =  5.3

     total cpu time spent up to now is       14.8 secs

     total energy              =    -333.18251442 Ry
     estimated scf accuracy    <       0.00006938 Ry

     iteration #  3     ecut=    30.00 Ry     beta= 0.70
     Davidson diagonalization with overlap
     ethr =  1.07E-07,  avg # of iterations =  4.5

     total cpu time spent up to now is       15.2 secs

     total energy              =    -333.18252989 Ry
     estimated scf accuracy    <       0.00000594 Ry

     iteration #  4     ecut=    30.00 Ry     beta= 0.70
     Davidson diagonalization with overlap
     ethr =  1.35E-08,  avg # of iterations =  2.7

     total cpu time spent up to now is       15.7 secs

     total energy              =    -333.18253048 Ry
     estimated scf accuracy    <       0.00000083 Ry

     iteration #  5     ecut=    30.00 Ry     beta= 0.70
     Davidson diagonalization with overlap
     ethr =  1.89E-09,  avg # of iterations =  5.0

     total cpu time spent up to now is       16.1 secs

     total energy              =    -333.18253091 Ry
     estimated scf accuracy    <       0.00000020 Ry

     iteration #  6     ecut=    30.00 Ry     beta= 0.70
     Davidson diagonalization with overlap
     ethr =  4.51E-10,  avg # of iterations =  2.0

     total cpu time spent up to now is       16.5 secs

     total energy              =    -333.18253090 Ry
     estimated scf accuracy    <       0.00000008 Ry

     iteration #  7     ecut=    30.00 Ry     beta= 0.70
     Davidson diagonalization with overlap
     ethr =  1.89E-10,  avg # of iterations =  4.3

     total cpu time spent up to now is       17.1 secs

     End of self-consistent calculation

          k = 0.1250 0.1250 0.1250 (  1090 PWs)   bands (ev):

   -44.6000 -21.2481 -21.2061 -21.2050  -6.3258  -5.2685  -5.2214  -3.9660
    -3.9609  -3.9485  -3.7811  -3.7757   4.6541   7.3011   7.3251   8.0880
     9.0657   9.1304   9.7899   9.8654  10.0354  10.1765

          k = 0.1250 0.1250 0.3750 (  1095 PWs)   bands (ev):

   -44.5987 -21.3065 -21.2038 -21.2029  -5.8933  -5.1150  -5.0973  -4.0264
    -3.9612  -3.9443  -3.8742  -3.7513   3.9007   6.8321   7.2678   7.8561
     8.4945   8.6834   9.4259   9.9220  10.1676  10.9147

          k = 0.1250 0.3750 0.3750 (  1087 PWs)   bands (ev):

   -44.5975 -21.3029 -21.2596 -21.2013  -5.6785  -5.0218  -4.9292  -3.9998
    -3.9551  -3.9015  -3.8105  -3.6508   3.5451   6.7214   6.9412   7.1975
     7.5123   8.7157   9.4150   9.5192  10.0571  10.7060

          k = 0.3750 0.3750 0.3750 (  1082 PWs)   bands (ev):

   -44.5962 -21.3004 -21.2573 -21.2570  -5.3069  -5.1419  -5.1087  -3.9121
    -3.9059  -3.6212  -3.5568  -3.5415   4.1686   5.9268   5.9670   6.7075
     7.0928   7.1200   7.9988  10.6486  10.6926  10.7683

          k = 0.3750-0.1250 0.1250 (  1095 PWs)   bands (ev):

   -44.5988 -21.2633 -21.2458 -21.2034  -5.9268  -5.1370  -5.0583  -4.0239
    -3.9577  -3.9459  -3.8800  -3.7468   3.9200   6.8801   7.3662   7.8577
     8.4512   8.7915   9.3385   9.9308  10.0606  10.8634

          k = 0.3750-0.3750 0.1250 (  1087 PWs)   bands (ev):

   -44.5975 -21.2602 -21.2593 -21.2436  -5.7412  -4.9830  -4.9087  -3.9943
    -3.9533  -3.8956  -3.8083  -3.6728   3.5624   6.8376   6.8832   7.1810
     7.4860   8.6910   9.4908   9.5061  10.0366  10.7671

     highest occupied level (ev):    10.9147

!    total energy              =    -333.18253092 Ry
     estimated scf accuracy    <          1.1E-09 Ry

     The total energy is the sum of the following terms:
     one-electron contribution =     -76.68282709 Ry
     hartree contribution      =      66.34335301 Ry
     xc contribution           =     -49.65789574 Ry
     ewald contribution        =    -273.18516110 Ry

     convergence has been achieved in   7 iterations

     Forces acting on atoms (cartesian axes, Ry/au):

     atom    1 type  2   force =     0.00000000    0.00000000    0.01343885
     atom    2 type  3   force =     0.00000000    0.00000000   -0.02288978
     atom    3 type  1   force =     0.00000000    0.00000000    0.00254560
     atom    4 type  1   force =     0.00000000    0.00000000    0.00254560
     atom    5 type  1   force =     0.00000000    0.00000000    0.00435972

     Total force =     0.005654     Total SCF correction =     0.000051


     Computing stress (Cartesian axis) and pressure

          total   stress  (Ry/bohr**3)                   (kbar)     P=       -8.58
  -0.00009325   0.00000000   0.00000000          -13.72        0.00        0.00
   0.00000000  -0.00009325   0.00000000            0.00      -13.72        0.00
   0.00000000   0.00000000   0.00001144            0.00        0.00        1.68

     Energy error            =      9.9E-05 Ry
     Gradient error          =      4.4E-03 Ry/Bohr

     number of scf cycles    =   3
     number of bfgs steps    =   2

     energy             old  =    -333.1824315131 Ry
     energy             new  =    -333.1825309153 Ry

     CASE: energy            _new < energy            _old

     new trust radius        =       0.0209927208 bohr
     new conv_thr            =       0.0000000010 Ry


ATOMIC_POSITIONS (angstrom)
Pb               0.0000000000        0.0000000000        0.0000000000    0   0   0
Ti               1.9375000000        1.9375000000        2.0537500000    0   0   0
O                0.0000000000        1.9375000000        1.9424159823
O                1.9375000000        0.0000000000        1.9424159823
O                1.9375000000        1.9375000000        0.0255880299


     Message from routine punch:
     Nothing written, as per user request (disk_io='none')
     NEW-OLD atomic charge density approx. for the potential

     total cpu time spent up to now is       18.7 secs

     Self-consistent Calculation

     iteration #  1     ecut=    30.00 Ry     beta= 0.70
     Davidson diagonalization with overlap
     ethr =  1.00E-06,  avg # of iterations =  5.3

     total cpu time spent up to now is       19.2 secs

     total energy              =    -333.18259407 Ry
     estimated scf accuracy    <       0.00007778 Ry

     iteration #  2     ecut=    30.00 Ry     beta= 0.70
     Davidson diagonalization with overlap
     ethr =  1.77E-07,  avg # of iterations =  4.5

     total cpu time spent up to now is       19.6 secs

     total energy              =    -333.18259961 Ry
     estimated scf accuracy    <       0.00004670 Ry

     iteration #  3     ecut=    30.00 Ry     beta= 0.70
     Davidson diagonalization with overlap
     ethr =  1.06E-07,  avg # of iterations =  4.5

     total cpu time spent up to now is       20.1 secs

     total energy              =    -333.18261129 Ry
     estimated scf accuracy    <       0.00001909 Ry

     iteration #  4     ecut=    30.00 Ry     beta= 0.70
     Davidson diagonalization with overlap
     ethr =  4.34E-08,  avg # of iterations =  3.7

     total cpu time spent up to now is       20.5 secs

     total energy              =    -333.18261370 Ry
     estimated scf accuracy    <       0.00000085 Ry

     iteration #  5     ecut=    30.00 Ry     beta= 0.70
     Davidson diagonalization with overlap
     ethr =  1.93E-09,  avg # of iterations =  6.0

     total cpu time spent up to now is       20.9 secs

     total energy              =    -333.18261453 Ry
     estimated scf accuracy    <       0.00000112 Ry

     iteration #  6     ecut=    30.00 Ry     beta= 0.70
     Davidson diagonalization with overlap
     ethr =  1.93E-09,  avg # of iterations =  1.7

     total cpu time spent up to now is       21.3 secs

     total energy              =    -333.18261438 Ry
     estimated scf accuracy    <       0.00000054 Ry

     iteration #  7     ecut=    30.00 Ry     beta= 0.70
     Davidson diagonalization with overlap
     ethr =  1.23E-09,  avg # of iterations =  3.8

     total cpu time spent up to now is       21.7 secs

     total energy              =    -333.18261454 Ry
     estimated scf accuracy    <       0.00000003 Ry

     iteration #  8     ecut=    30.00 Ry     beta= 0.70
     Davidson diagonalization with overlap
     ethr =  6.54E-11,  avg # of iterations =  4.0

     total cpu time spent up to now is       22.1 secs

     total energy              =    -333.18261455 Ry
     estimated scf accuracy    <          3.0E-09 Ry

     iteration #  9     ecut=    30.00 Ry     beta= 0.70
     Davidson diagonalization with overlap
     ethr =  6.89E-12,  avg # of iterations =  3.2

     total cpu time spent up to now is       22.5 secs

     total energy              =    -333.18261455 Ry
     estimated scf accuracy    <          1.5E-09 Ry

     iteration # 10     ecut=    30.00 Ry     beta= 0.70
     Davidson diagonalization with overlap
     ethr =  3.30E-12,  avg # of iterations =  3.8

     total cpu time spent up to now is       22.8 secs

     End of self-consistent calculation

          k = 0.1250 0.1250 0.1250 (  1090 PWs)   bands (ev):

   -44.6130 -21.2522 -21.2193 -21.2183  -6.3268  -5.2649  -5.2257  -3.9633
    -3.9590  -3.9465  -3.7788  -3.7743   4.6562   7.3023   7.3219   8.0874
     9.0789   9.1365   9.8130   9.8695  10.0293  10.1752

          k = 0.1250 0.1250 0.3750 (  1095 PWs)   bands (ev):

   -44.6117 -21.3105 -21.2171 -21.2161  -5.8975  -5.1086  -5.1023  -4.0239
    -3.9585  -3.9425  -3.8727  -3.7488   3.9067   6.8330   7.2773   7.8521
     8.4926   8.6970   9.4240   9.9259  10.1620  10.9119

          k = 0.1250 0.3750 0.3750 (  1087 PWs)   bands (ev):

   -44.6104 -21.3069 -21.2728 -21.2145  -5.6824  -5.0167  -4.9310  -3.9973
    -3.9528  -3.8992  -3.8084  -3.6500   3.5485   6.7319   6.9322   7.1964
     7.5105   8.7116   9.4256   9.5162  10.0600  10.7114

          k = 0.3750 0.3750 0.3750 (  1082 PWs)   bands (ev):

   -44.6092 -21.3044 -21.2704 -21.2702  -5.3055  -5.1397  -5.1118  -3.9094
    -3.9041  -3.6186  -3.5545  -3.5412   4.1705   5.9325   5.9656   6.7075
     7.0884   7.1107   8.0014  10.6570  10.6964  10.7669

          k = 0.3750-0.1250 0.1250 (  1095 PWs)   bands (ev):

   -44.6117 -21.2765 -21.2500 -21.2166  -5.9258  -5.1355  -5.0620  -4.0218
    -3.9555  -3.9438  -3.8775  -3.7452   3.9222   6.8754   7.3658   7.8571
     8.4523   8.7889   9.3499   9.9349  10.0702  10.8673

          k = 0.3750-0.3750 0.1250 (  1087 PWs)   bands (ev):

   -44.6105 -21.2734 -21.2724 -21.2478  -5.7352  -4.9861  -4.9127  -3.9925
    -3.9512  -3.8940  -3.8066  -3.6690   3.5622   6.8343   6.8790   7.1870
     7.4923   8.6910   9.4905   9.5051  10.0393  10.7633

     highest occupied level (ev):    10.9119

!    total energy              =    -333.18261455 Ry
     estimated scf accuracy    <          1.2E-10 Ry

     The total energy is the sum of the following terms:
     one-electron contribution =     -76.61043509 Ry
     hartree contribution      =      66.30405087 Ry
     xc contribution           =     -49.65491173 Ry
     ewald contribution        =    -273.22131859 Ry

     convergence has been achieved in  10 iterations

     Forces acting on atoms (cartesian axes, Ry/au):

     atom    1 type  2   force =     0.00000000    0.00000000    0.01336779
     atom    2 type  3   force =     0.00000000    0.00000000   -0.02048050
     atom    3 type  1   force =     0.00000000    0.00000000    0.00400145
     atom    4 type  1   force =     0.00000000    0.00000000    0.00400145
     atom    5 type  1   force =     0.00000000    0.00000000   -0.00089018

     Total force =     0.005728     Total SCF correction =     0.000005


     Computing stress (Cartesian axis) and pressure

          total   stress  (Ry/bohr**3)                   (kbar)     P=      -10.35
  -0.00009657   0.00000000   0.00000000          -14.21        0.00        0.00
   0.00000000  -0.00009657   0.00000000            0.00      -14.21        0.00
   0.00000000   0.00000000  -0.00001790            0.00        0.00       -2.63

     Energy error            =      8.4E-05 Ry
     Gradient error          =      4.0E-03 Ry/Bohr

     number of scf cycles    =   4
     number of bfgs steps    =   3

     energy             old  =    -333.1825309153 Ry
     energy             new  =    -333.1826145486 Ry

     CASE: energy            _new < energy            _old

     new trust radius        =       0.0119642244 bohr
     new conv_thr            =       0.0000000010 Ry


ATOMIC_POSITIONS (angstrom)
Pb               0.0000000000        0.0000000000        0.0000000000    0   0   0
Ti               1.9375000000        1.9375000000        2.0537500000    0   0   0
O                0.0000000000        1.9375000000        1.9470153792
O                1.9375000000        0.0000000000        1.9470153792
O                1.9375000000        1.9375000000        0.0319192248


     Message from routine punch:
     Nothing written, as per user request (disk_io='none')
     NEW-OLD atomic charge density approx. for the potential

     total cpu time spent up to now is       24.4 secs

     Self-consistent Calculation

     iteration #  1     ecut=    30.00 Ry     beta= 0.70
     Davidson diagonalization with overlap
     ethr =  1.00E-06,  avg # of iterations =  4.7

     Threshold (ethr) on eigenvalues was too large:
     Diagonalizing with lowered threshold

     Davidson diagonalization with overlap
     ethr =  6.66E-08,  avg # of iterations =  3.7

     total cpu time spent up to now is       25.1 secs

     total energy              =    -333.18265828 Ry
     estimated scf accuracy    <       0.00003150 Ry

     iteration #  2     ecut=    30.00 Ry     beta= 0.70
     Davidson diagonalization with overlap
     ethr =  7.16E-08,  avg # of iterations =  4.7

     total cpu time spent up to now is       25.6 secs

     total energy              =    -333.18265787 Ry
     estimated scf accuracy    <       0.00001803 Ry

     iteration #  3     ecut=    30.00 Ry     beta= 0.70
     Davidson diagonalization with overlap
     ethr =  4.10E-08,  avg # of iterations =  4.7

     total cpu time spent up to now is       26.0 secs

     total energy              =    -333.18266298 Ry
     estimated scf accuracy    <       0.00001028 Ry

     iteration #  4     ecut=    30.00 Ry     beta= 0.70
     Davidson diagonalization with overlap
     ethr =  2.34E-08,  avg # of iterations =  3.0

     total cpu time spent up to now is       26.4 secs

     total energy              =    -333.18266375 Ry
     estimated scf accuracy    <       0.00000102 Ry

     iteration #  5     ecut=    30.00 Ry     beta= 0.70
     Davidson diagonalization with overlap
     ethr =  2.31E-09,  avg # of iterations =  5.0

     total cpu time spent up to now is       26.9 secs

     total energy              =    -333.18266452 Ry
     estimated scf accuracy    <       0.00000107 Ry

     iteration #  6     ecut=    30.00 Ry     beta= 0.70
     Davidson diagonalization with overlap
     ethr =  2.31E-09,  avg # of iterations =  1.3

     total cpu time spent up to now is       27.2 secs

     total energy              =    -333.18266437 Ry
     estimated scf accuracy    <       0.00000066 Ry

     iteration #  7     ecut=    30.00 Ry     beta= 0.70
     Davidson diagonalization with overlap
     ethr =  1.50E-09,  avg # of iterations =  2.5

     total cpu time spent up to now is       27.6 secs

     total energy              =    -333.18266445 Ry
     estimated scf accuracy    <       0.00000008 Ry

     iteration #  8     ecut=    30.00 Ry     beta= 0.70
     Davidson diagonalization with overlap
     ethr =  1.71E-10,  avg # of iterations =  4.7

     total cpu time spent up to now is       28.0 secs

     total energy              =    -333.18266447 Ry
     estimated scf accuracy    <          1.6E-09 Ry

     iteration #  9     ecut=    30.00 Ry     beta= 0.70
     Davidson diagonalization with overlap
     ethr =  3.72E-12,  avg # of iterations =  4.2

     total cpu time spent up to now is       28.5 secs

     total energy              =    -333.18266447 Ry
     estimated scf accuracy    <          1.4E-09 Ry

     iteration # 10     ecut=    30.00 Ry     beta= 0.70
     Davidson diagonalization with overlap
     ethr =  3.17E-12,  avg # of iterations =  4.5

     total cpu time spent up to now is       28.9 secs

     End of self-consistent calculation

          k = 0.1250 0.1250 0.1250 (  1090 PWs)   bands (ev):

   -44.6195 -21.2543 -21.2261 -21.2251  -6.3272  -5.2633  -5.2289  -3.9621
    -3.9581  -3.9456  -3.7778  -3.7736   4.6574   7.3034   7.3204   8.0880
     9.0867   9.1392   9.8285   9.8729  10.0247  10.1721

          k = 0.1250 0.1250 0.3750 (  1095 PWs)   bands (ev):

   -44.6183 -21.3125 -21.2239 -21.2230  -5.9001  -5.1059  -5.1049  -4.0226
    -3.9572  -3.9416  -3.8720  -3.7477   3.9102   6.8340   7.2847   7.8512
     8.4893   8.7041   9.4221   9.9291  10.1580  10.9093

          k = 0.1250 0.3750 0.3750 (  1087 PWs)   bands (ev):

   -44.6170 -21.3089 -21.2797 -21.2213  -5.6850  -5.0140  -4.9320  -3.9960
    -3.9516  -3.8980  -3.8074  -3.6498   3.5502   6.7393   6.9250   7.1958
     7.5092   8.7089   9.4307   9.5140  10.0611  10.7147

          k = 0.3750 0.3750 0.3750 (  1082 PWs)   bands (ev):

   -44.6157 -21.3064 -21.2773 -21.2770  -5.3046  -5.1384  -5.1137  -3.9081
    -3.9033  -3.6172  -3.5533  -3.5411   4.1710   5.9355   5.9641   6.7086
     7.0840   7.1031   8.0026  10.6618  10.6979  10.7662

          k = 0.3750-0.1250 0.1250 (  1095 PWs)   bands (ev):

   -44.6183 -21.2833 -21.2520 -21.2235  -5.9251  -5.1352  -5.0642  -4.0208
    -3.9545  -3.9428  -3.8762  -3.7444   3.9232   6.8720   7.3647   7.8569
     8.4532   8.7859   9.3561   9.9374  10.0764  10.8690

          k = 0.3750-0.3750 0.1250 (  1087 PWs)   bands (ev):

   -44.6170 -21.2802 -21.2793 -21.2499  -5.7314  -4.9881  -4.9152  -3.9918
    -3.9501  -3.8932  -3.8057  -3.6670   3.5617   6.8324   6.8758   7.1890
     7.4940   8.6907   9.4890   9.5045  10.0413  10.7607

     highest occupied level (ev):    10.9093

!    total energy              =    -333.18266447 Ry
     estimated scf accuracy    <          1.9E-10 Ry

     The total energy is the sum of the following terms:
     one-electron contribution =     -76.58827520 Ry
     hartree contribution      =      66.29134597 Ry
     xc contribution           =     -49.65364649 Ry
     ewald contribution        =    -273.23208875 Ry

     convergence has been achieved in  10 iterations

     Forces acting on atoms (cartesian axes, Ry/au):

     atom    1 type  2   force =     0.00000000    0.00000000    0.01312714
     atom    2 type  3   force =     0.00000000    0.00000000   -0.01926005
     atom    3 type  1   force =     0.00000000    0.00000000    0.00448321
     atom    4 type  1   force =     0.00000000    0.00000000    0.00448321
     atom    5 type  1   force =     0.00000000    0.00000000   -0.00283351

     Total force =     0.006945     Total SCF correction =     0.000006


     Computing stress (Cartesian axis) and pressure

          total   stress  (Ry/bohr**3)                   (kbar)     P=      -11.04
  -0.00009680   0.00000000   0.00000000          -14.24        0.00        0.00
   0.00000000  -0.00009680   0.00000000            0.00      -14.24        0.00
   0.00000000   0.00000000  -0.00003161            0.00        0.00       -4.65

     Energy error            =      5.0E-05 Ry
     Gradient error          =      4.5E-03 Ry/Bohr

     number of scf cycles    =   5
     number of bfgs steps    =   4

     energy             old  =    -333.1826145486 Ry
     energy             new  =    -333.1826644728 Ry

     CASE: energy            _new < energy            _old

     new trust radius        =       0.0131606469 bohr
     new conv_thr            =       0.0000000010 Ry


ATOMIC_POSITIONS (angstrom)
Pb               0.0000000000        0.0000000000        0.0000000000    0   0   0
Ti               1.9375000000        1.9375000000        2.0537500000    0   0   0
O                0.0000000000        1.9375000000        1.9539618546
O                1.9375000000        0.0000000000        1.9539618546
O                1.9375000000        1.9375000000        0.0388835392


     Message from routine punch:
     Nothing written, as per user request (disk_io='none')
     NEW-OLD atomic charge density approx. for the potential

     total cpu time spent up to now is       30.5 secs

     Self-consistent Calculation

     iteration #  1     ecut=    30.00 Ry     beta= 0.70
     Davidson diagonalization with overlap
     ethr =  1.00E-06,  avg # of iterations =  5.3

     total cpu time spent up to now is       31.0 secs

     total energy              =    -333.18273294 Ry
     estimated scf accuracy    <       0.00004565 Ry

     iteration #  2     ecut=    30.00 Ry     beta= 0.70
     Davidson diagonalization with overlap
     ethr =  1.04E-07,  avg # of iterations =  4.3

     total cpu time spent up to now is       31.4 secs

     total energy              =    -333.18273611 Ry
     estimated scf accuracy    <       0.00001532 Ry

     iteration #  3     ecut=    30.00 Ry     beta= 0.70
     Davidson diagonalization with overlap
     ethr =  3.48E-08,  avg # of iterations =  5.2

     total cpu time spent up to now is       31.9 secs

     total energy              =    -333.18273947 Ry
     estimated scf accuracy    <       0.00001702 Ry

     iteration #  4     ecut=    30.00 Ry     beta= 0.70
     Davidson diagonalization with overlap
     ethr =  3.48E-08,  avg # of iterations =  3.5

     total cpu time spent up to now is       32.3 secs

     total energy              =    -333.18274184 Ry
     estimated scf accuracy    <       0.00000034 Ry

     iteration #  5     ecut=    30.00 Ry     beta= 0.70
     Davidson diagonalization with overlap
     ethr =  7.70E-10,  avg # of iterations =  7.0

     total cpu time spent up to now is       32.8 secs

     total energy              =    -333.18274248 Ry
     estimated scf accuracy    <       0.00000132 Ry

     iteration #  6     ecut=    30.00 Ry     beta= 0.70
     Davidson diagonalization with overlap
     ethr =  7.70E-10,  avg # of iterations =  3.3

     total cpu time spent up to now is       33.3 secs

     total energy              =    -333.18274238 Ry
     estimated scf accuracy    <       0.00000062 Ry

     iteration #  7     ecut=    30.00 Ry     beta= 0.70
     Davidson diagonalization with overlap
     ethr =  7.70E-10,  avg # of iterations =  4.3

     total cpu time spent up to now is       33.7 secs

     total energy              =    -333.18274242 Ry
     estimated scf accuracy    <       0.00000006 Ry

     iteration #  8     ecut=    30.00 Ry     beta= 0.70
     Davidson diagonalization with overlap
     ethr =  1.33E-10,  avg # of iterations =  4.5

     total cpu time spent up to now is       34.1 secs

     total energy              =    -333.18274245 Ry
     estimated scf accuracy    <          7.8E-09 Ry

     iteration #  9     ecut=    30.00 Ry     beta= 0.70
     Davidson diagonalization with overlap
     ethr =  1.76E-11,  avg # of iterations =  3.2

     total cpu time spent up to now is       34.5 secs

     total energy              =    -333.18274245 Ry
     estimated scf accuracy    <          1.9E-09 Ry

     iteration # 10     ecut=    30.00 Ry     beta= 0.70
     Davidson diagonalization with overlap
     ethr =  4.40E-12,  avg # of iterations =  4.7

     total cpu time spent up to now is       34.9 secs

     End of self-consistent calculation

          k = 0.1250 0.1250 0.1250 (  1090 PWs)   bands (ev):

   -44.6262 -21.2563 -21.2331 -21.2321  -6.3277  -5.2617  -5.2330  -3.9607
    -3.9572  -3.9445  -3.7767  -3.7729   4.6586   7.3049   7.3189   8.0893
     9.0953   9.1417   9.8473   9.8774  10.0186  10.1667

          k = 0.1250 0.1250 0.3750 (  1095 PWs)   bands (ev):

   -44.6249 -21.3145 -21.2309 -21.2299  -5.9033  -5.1106  -5.1010  -4.0212
    -3.9558  -3.9407  -3.8712  -3.7464   3.9142   6.8354   7.2941   7.8510
     8.4840   8.7115   9.4191   9.9332  10.1530  10.9057

          k = 0.1250 0.3750 0.3750 (  1087 PWs)   bands (ev):

   -44.6236 -21.3109 -21.2867 -21.2283  -5.6882  -5.0113  -4.9331  -3.9947
    -3.9504  -3.8968  -3.8062  -3.6495   3.5520   6.7484   6.9157   7.1951
     7.5076   8.7055   9.4352   9.5111  10.0619  10.7182

          k = 0.3750 0.3750 0.3750 (  1082 PWs)   bands (ev):

   -44.6224 -21.3084 -21.2843 -21.2840  -5.3037  -5.1371  -5.1161  -3.9067
    -3.9024  -3.6157  -3.5519  -3.5409   4.1710   5.9385   5.9619   6.7105
     7.0777   7.0933   8.0039  10.6670  10.6988  10.7655

          k = 0.3750-0.1250 0.1250 (  1095 PWs)   bands (ev):

   -44.6249 -21.2903 -21.2541 -21.2304  -5.9243  -5.1354  -5.0670  -4.0198
    -3.9534  -3.9417  -3.8747  -3.7436   3.9242   6.8677   7.3628   7.8569
     8.4544   8.7816   9.3623   9.9401  10.0835  10.8707

          k = 0.3750-0.3750 0.1250 (  1087 PWs)   bands (ev):

   -44.6237 -21.2872 -21.2863 -21.2519  -5.7271  -4.9906  -4.9183  -3.9910
    -3.9490  -3.8923  -3.8046  -3.6648   3.5607   6.8300   6.8717   7.1900
     7.4946   8.6901   9.4864   9.5037  10.0438  10.7574

     highest occupied level (ev):    10.9057

!    total energy              =    -333.18274245 Ry
     estimated scf accuracy    <          1.4E-10 Ry

     The total energy is the sum of the following terms:
     one-electron contribution =     -76.57818843 Ry
     hartree contribution      =      66.28457724 Ry
     xc contribution           =     -49.65261405 Ry
     ewald contribution        =    -273.23651722 Ry

     convergence has been achieved in  10 iterations

     Forces acting on atoms (cartesian axes, Ry/au):

     atom    1 type  2   force =     0.00000000    0.00000000    0.01269379
     atom    2 type  3   force =     0.00000000    0.00000000   -0.01804782
     atom    3 type  1   force =     0.00000000    0.00000000    0.00475241
     atom    4 type  1   force =     0.00000000    0.00000000    0.00475241
     atom    5 type  1   force =     0.00000000    0.00000000   -0.00415080

     Total force =     0.007899     Total SCF correction =     0.000003


     Computing stress (Cartesian axis) and pressure

          total   stress  (Ry/bohr**3)                   (kbar)     P=      -11.64
  -0.00009633   0.00000000   0.00000000          -14.17        0.00        0.00
   0.00000000  -0.00009633   0.00000000            0.00      -14.17        0.00
   0.00000000   0.00000000  -0.00004477            0.00        0.00       -6.59

     Energy error            =      7.8E-05 Ry
     Gradient error          =      4.8E-03 Ry/Bohr

     number of scf cycles    =   6
     number of bfgs steps    =   5

     energy             old  =    -333.1826644728 Ry
     energy             new  =    -333.1827424466 Ry

     CASE: energy            _new < energy            _old

     new trust radius        =       0.0197409703 bohr
     new conv_thr            =       0.0000000010 Ry


ATOMIC_POSITIONS (angstrom)
Pb               0.0000000000        0.0000000000        0.0000000000    0   0   0
Ti               1.9375000000        1.9375000000        2.0537500000    0   0   0
O                0.0000000000        1.9375000000        1.9644083262
O                1.9375000000        0.0000000000        1.9644083262
O                1.9375000000        1.9375000000        0.0478015995


     Message from routine punch:
     Nothing written, as per user request (disk_io='none')
     NEW-OLD atomic charge density approx. for the potential

     total cpu time spent up to now is       36.6 secs

     Self-consistent Calculation

     iteration #  1     ecut=    30.00 Ry     beta= 0.70
     Davidson diagonalization with overlap
     ethr =  1.00E-06,  avg # of iterations =  5.7

     total cpu time spent up to now is       37.1 secs

     total energy              =    -333.18283994 Ry
     estimated scf accuracy    <       0.00008740 Ry

     iteration #  2     ecut=    30.00 Ry     beta= 0.70
     Davidson diagonalization with overlap
     ethr =  1.99E-07,  avg # of iterations =  3.3

     total cpu time spent up to now is       37.6 secs

     total energy              =    -333.18285009 Ry
     estimated scf accuracy    <       0.00001459 Ry

     iteration #  3     ecut=    30.00 Ry     beta= 0.70
     Davidson diagonalization with overlap
     ethr =  3.32E-08,  avg # of iterations =  5.0

     total cpu time spent up to now is       38.0 secs

     total energy              =    -333.18285279 Ry
     estimated scf accuracy    <       0.00001526 Ry

     iteration #  4     ecut=    30.00 Ry     beta= 0.70
     Davidson diagonalization with overlap
     ethr =  3.32E-08,  avg # of iterations =  4.5

     total cpu time spent up to now is       38.5 secs

     total energy              =    -333.18285595 Ry
     estimated scf accuracy    <       0.00000031 Ry

     iteration #  5     ecut=    30.00 Ry     beta= 0.70
     Davidson diagonalization with overlap
     ethr =  7.10E-10,  avg # of iterations =  5.7

     total cpu time spent up to now is       39.0 secs

     total energy              =    -333.18285608 Ry
     estimated scf accuracy    <       0.00000070 Ry

     iteration #  6     ecut=    30.00 Ry     beta= 0.70
     Davidson diagonalization with overlap
     ethr =  7.10E-10,  avg # of iterations =  4.2

     total cpu time spent up to now is       39.4 secs

     total energy              =    -333.18285613 Ry
     estimated scf accuracy    <       0.00000007 Ry

     iteration #  7     ecut=    30.00 Ry     beta= 0.70
     Davidson diagonalization with overlap
     ethr =  1.51E-10,  avg # of iterations =  4.7

     total cpu time spent up to now is       39.8 secs

     total energy              =    -333.18285615 Ry
     estimated scf accuracy    <          6.3E-09 Ry

     iteration #  8     ecut=    30.00 Ry     beta= 0.70
     Davidson diagonalization with overlap
     ethr =  1.43E-11,  avg # of iterations =  2.5

     total cpu time spent up to now is       40.2 secs

     total energy              =    -333.18285615 Ry
     estimated scf accuracy    <          3.8E-09 Ry

     iteration #  9     ecut=    30.00 Ry     beta= 0.70
     Davidson diagonalization with overlap
     ethr =  8.52E-12,  avg # of iterations =  4.8

     total cpu time spent up to now is       40.6 secs

     End of self-consistent calculation

          k = 0.1250 0.1250 0.1250 (  1090 PWs)   bands (ev):

   -44.6339 -21.2588 -21.2414 -21.2403  -6.3286  -5.2600  -5.2389  -3.9590
    -3.9559  -3.9432  -3.7754  -3.7716   4.6601   7.3067   7.3173   8.0912
     9.1057   9.1441   9.8722   9.8833  10.0100  10.1578

          k = 0.1250 0.1250 0.3750 (  1095 PWs)   bands (ev):

   -44.6327 -21.3169 -21.2392 -21.2382  -5.9079  -5.1173  -5.0961  -4.0193
    -3.9539  -3.9394  -3.8699  -3.7448   3.9193   6.8375   7.3065   7.8512
     8.4763   8.7203   9.4145   9.9385  10.1459  10.9008

          k = 0.1250 0.3750 0.3750 (  1087 PWs)   bands (ev):

   -44.6314 -21.3133 -21.2950 -21.2366  -5.6927  -5.0086  -4.9345  -3.9930
    -3.9488  -3.8950  -3.8046  -3.6489   3.5541   6.7605   6.9027   7.1939
     7.5053   8.7008   9.4398   9.5074  10.0628  10.7225

          k = 0.3750 0.3750 0.3750 (  1082 PWs)   bands (ev):

   -44.6302 -21.3108 -21.2926 -21.2924  -5.3029  -5.1353  -5.1196  -3.9048
    -3.9012  -3.6138  -3.5500  -3.5405   4.1705   5.9420   5.9587   6.7130
     7.0691   7.0800   8.0059  10.6731  10.6987  10.7650

          k = 0.3750-0.1250 0.1250 (  1095 PWs)   bands (ev):

   -44.6327 -21.2986 -21.2566 -21.2387  -5.9236  -5.1361  -5.0709  -4.0184
    -3.9519  -3.9403  -3.8723  -3.7422   3.9254   6.8618   7.3598   7.8570
     8.4558   8.7754   9.3694   9.9430  10.0923  10.8726

          k = 0.3750-0.3750 0.1250 (  1087 PWs)   bands (ev):

   -44.6314 -21.2955 -21.2946 -21.2544  -5.7216  -4.9945  -4.9229  -3.9899
    -3.9473  -3.8906  -3.8029  -3.6620   3.5590   6.8268   6.8660   7.1904
     7.4946   8.6895   9.4825   9.5026  10.0473  10.7526

     highest occupied level (ev):    10.9008

!    total energy              =    -333.18285615 Ry
     estimated scf accuracy    <          2.5E-10 Ry

     The total energy is the sum of the following terms:
     one-electron contribution =     -76.57934370 Ry
     hartree contribution      =      66.28312036 Ry
     xc contribution           =     -49.65166967 Ry
     ewald contribution        =    -273.23496315 Ry

     convergence has been achieved in   9 iterations

     Forces acting on atoms (cartesian axes, Ry/au):

     atom    1 type  2   force =     0.00000000    0.00000000    0.01201334
     atom    2 type  3   force =     0.00000000    0.00000000   -0.01671784
     atom    3 type  1   force =     0.00000000    0.00000000    0.00489062
     atom    4 type  1   force =     0.00000000    0.00000000    0.00489062
     atom    5 type  1   force =     0.00000000    0.00000000   -0.00507674

     Total force =     0.008580     Total SCF correction =     0.000003


     Computing stress (Cartesian axis) and pressure

          total   stress  (Ry/bohr**3)                   (kbar)     P=      -12.17
  -0.00009477   0.00000000   0.00000000          -13.94        0.00        0.00
   0.00000000  -0.00009477   0.00000000            0.00      -13.94        0.00
   0.00000000   0.00000000  -0.00005871            0.00        0.00       -8.64

     Energy error            =      1.1E-04 Ry
     Gradient error          =      5.1E-03 Ry/Bohr

     number of scf cycles    =   7
     number of bfgs steps    =   6

     energy             old  =    -333.1827424466 Ry
     energy             new  =    -333.1828561550 Ry

     CASE: energy            _new < energy            _old

     new trust radius        =       0.0296114554 bohr
     new conv_thr            =       0.0000000011 Ry


ATOMIC_POSITIONS (angstrom)
Pb               0.0000000000        0.0000000000        0.0000000000    0   0   0
Ti               1.9375000000        1.9375000000        2.0537500000    0   0   0
O                0.0000000000        1.9375000000        1.9800780336
O                1.9375000000        0.0000000000        1.9800780336
O                1.9375000000        1.9375000000        0.0600756378


     Message from routine punch:
     Nothing written, as per user request (disk_io='none')
     NEW-OLD atomic charge density approx. for the potential

     total cpu time spent up to now is       42.2 secs

     Self-consistent Calculation

     iteration #  1     ecut=    30.00 Ry     beta= 0.70
     Davidson diagonalization with overlap
     ethr =  1.00E-06,  avg # of iterations =  7.2

     total cpu time spent up to now is       42.7 secs

     total energy              =    -333.18299268 Ry
     estimated scf accuracy    <       0.00018299 Ry

     iteration #  2     ecut=    30.00 Ry     beta= 0.70
     Davidson diagonalization with overlap
     ethr =  4.16E-07,  avg # of iterations =  2.8

     total cpu time spent up to now is       43.2 secs

     total energy              =    -333.18301431 Ry
     estimated scf accuracy    <       0.00002199 Ry

     iteration #  3     ecut=    30.00 Ry     beta= 0.70
     Davidson diagonalization with overlap
     ethr =  5.00E-08,  avg # of iterations =  5.0

     total cpu time spent up to now is       43.8 secs

     total energy              =    -333.18301685 Ry
     estimated scf accuracy    <       0.00002229 Ry

     iteration #  4     ecut=    30.00 Ry     beta= 0.70
     Davidson diagonalization with overlap
     ethr =  5.00E-08,  avg # of iterations =  4.5

     total cpu time spent up to now is       44.2 secs

     total energy              =    -333.18302227 Ry
     estimated scf accuracy    <       0.00000185 Ry

     iteration #  5     ecut=    30.00 Ry     beta= 0.70
     Davidson diagonalization with overlap
     ethr =  4.20E-09,  avg # of iterations =  4.3

     total cpu time spent up to now is       44.7 secs

     total energy              =    -333.18302249 Ry
     estimated scf accuracy    <       0.00000051 Ry

     iteration #  6     ecut=    30.00 Ry     beta= 0.70
     Davidson diagonalization with overlap
     ethr =  1.15E-09,  avg # of iterations =  4.3

     total cpu time spent up to now is       45.1 secs

     total energy              =    -333.18302263 Ry
     estimated scf accuracy    <       0.00000004 Ry

     iteration #  7     ecut=    30.00 Ry     beta= 0.70
     Davidson diagonalization with overlap
     ethr =  8.96E-11,  avg # of iterations =  3.7

     total cpu time spent up to now is       45.6 secs

     total energy              =    -333.18302263 Ry
     estimated scf accuracy    <          9.7E-09 Ry

     iteration #  8     ecut=    30.00 Ry     beta= 0.70
     Davidson diagonalization with overlap
     ethr =  2.20E-11,  avg # of iterations =  4.7

     total cpu time spent up to now is       46.0 secs

     total energy              =    -333.18302263 Ry
     estimated scf accuracy    <          2.0E-09 Ry

     iteration #  9     ecut=    30.00 Ry     beta= 0.70
     Davidson diagonalization with overlap
     ethr =  4.45E-12,  avg # of iterations =  2.8

     total cpu time spent up to now is       46.5 secs

     End of self-consistent calculation

          k = 0.1250 0.1250 0.1250 (  1090 PWs)   bands (ev):

   -44.6434 -21.2621 -21.2515 -21.2505  -6.3304  -5.2578  -5.2475  -3.9563
    -3.9539  -3.9409  -3.7734  -3.7691   4.6622   7.3085   7.3153   8.0939
     9.1183   9.1462   9.8908   9.9059   9.9981  10.1436

          k = 0.1250 0.1250 0.3750 (  1095 PWs)   bands (ev):

   -44.6422 -21.3200 -21.2494 -21.2484  -5.9147  -5.1271  -5.0896  -4.0162
    -3.9511  -3.9373  -3.8673  -3.7424   3.9260   6.8403   7.3219   7.8507
     8.4658   8.7312   9.4075   9.9450  10.1357  10.8945

          k = 0.1250 0.3750 0.3750 (  1087 PWs)   bands (ev):

   -44.6410 -21.3164 -21.3052 -21.2468  -5.6994  -5.0065  -4.9360  -3.9902
    -3.9464  -3.8923  -3.8019  -3.6473   3.5571   6.7767   6.8842   7.1916
     7.5024   8.6941   9.4434   9.5033  10.0640  10.7278

          k = 0.3750 0.3750 0.3750 (  1082 PWs)   bands (ev):

   -44.6397 -21.3139 -21.3029 -21.3026  -5.3027  -5.1329  -5.1250  -3.9020
    -3.8993  -3.6112  -3.5469  -3.5391   4.1690   5.9464   5.9538   6.7160
     7.0577   7.0625   8.0099  10.6805  10.6964  10.7650

          k = 0.3750-0.1250 0.1250 (  1095 PWs)   bands (ev):

   -44.6422 -21.3089 -21.2598 -21.2489  -5.9231  -5.1376  -5.0768  -4.0163
    -3.9495  -3.9379  -3.8683  -3.7399   3.9268   6.8537   7.3552   7.8570
     8.4572   8.7670   9.3778   9.9460  10.1028  10.8753

          k = 0.3750-0.3750 0.1250 (  1087 PWs)   bands (ev):

   -44.6410 -21.3058 -21.3048 -21.2577  -5.7145  -5.0006  -4.9303  -3.9881
    -3.9444  -3.8874  -3.7996  -3.6580   3.5560   6.8220   6.8580   7.1902
     7.4942   8.6888   9.4770   9.5009  10.0526  10.7455

     highest occupied level (ev):    10.8945

!    total energy              =    -333.18302263 Ry
     estimated scf accuracy    <          6.3E-10 Ry

     The total energy is the sum of the following terms:
     one-electron contribution =     -76.59758105 Ry
     hartree contribution      =      66.28969128 Ry
     xc contribution           =     -49.65085369 Ry
     ewald contribution        =    -273.22427918 Ry

     convergence has been achieved in   9 iterations

     Forces acting on atoms (cartesian axes, Ry/au):

     atom    1 type  2   force =     0.00000000    0.00000000    0.01100365
     atom    2 type  3   force =     0.00000000    0.00000000   -0.01529828
     atom    3 type  1   force =     0.00000000    0.00000000    0.00492397
     atom    4 type  1   force =     0.00000000    0.00000000    0.00492397
     atom    5 type  1   force =     0.00000000    0.00000000   -0.00555331

     Total force =     0.008907     Total SCF correction =     0.000009


     Computing stress (Cartesian axis) and pressure

          total   stress  (Ry/bohr**3)                   (kbar)     P=      -12.63
  -0.00009193   0.00000000   0.00000000          -13.52        0.00        0.00
   0.00000000  -0.00009193   0.00000000            0.00      -13.52        0.00
   0.00000000   0.00000000  -0.00007369            0.00        0.00      -10.84

     Energy error            =      1.7E-04 Ry
     Gradient error          =      5.6E-03 Ry/Bohr

     number of scf cycles    =   8
     number of bfgs steps    =   7

     energy             old  =    -333.1828561550 Ry
     energy             new  =    -333.1830226334 Ry

     CASE: energy            _new < energy            _old

     new trust radius        =       0.0444171831 bohr
     new conv_thr            =       0.0000000017 Ry


ATOMIC_POSITIONS (angstrom)
Pb               0.0000000000        0.0000000000        0.0000000000    0   0   0
Ti               1.9375000000        1.9375000000        2.0537500000    0   0   0
O                0.0000000000        1.9375000000        2.0035825946
O                1.9375000000        0.0000000000        2.0035825946
O                1.9375000000        1.9375000000        0.0778563547


     Message from routine punch:
     Nothing written, as per user request (disk_io='none')
     NEW-OLD atomic charge density approx. for the potential

     total cpu time spent up to now is       48.2 secs

     Self-consistent Calculation

     iteration #  1     ecut=    30.00 Ry     beta= 0.70
     Davidson diagonalization with overlap
     ethr =  1.00E-06,  avg # of iterations =  8.3

     total cpu time spent up to now is       48.8 secs

     total energy              =    -333.18321025 Ry
     estimated scf accuracy    <       0.00040043 Ry

     iteration #  2     ecut=    30.00 Ry     beta= 0.70
     Davidson diagonalization with overlap
     ethr =  9.10E-07,  avg # of iterations =  2.3

     total cpu time spent up to now is       49.2 secs

     total energy              =    -333.18326239 Ry
     estimated scf accuracy    <       0.00003220 Ry

     iteration #  3     ecut=    30.00 Ry     beta= 0.70
     Davidson diagonalization with overlap
     ethr =  7.32E-08,  avg # of iterations =  4.2

     total cpu time spent up to now is       49.7 secs

     total energy              =    -333.18326749 Ry
     estimated scf accuracy    <       0.00001646 Ry

     iteration #  4     ecut=    30.00 Ry     beta= 0.70
     Davidson diagonalization with overlap
     ethr =  3.74E-08,  avg # of iterations =  4.7

     total cpu time spent up to now is       50.1 secs

     total energy              =    -333.18327158 Ry
     estimated scf accuracy    <       0.00000481 Ry

     iteration #  5     ecut=    30.00 Ry     beta= 0.70
     Davidson diagonalization with overlap
     ethr =  1.09E-08,  avg # of iterations =  3.8

     total cpu time spent up to now is       50.6 secs

     total energy              =    -333.18327246 Ry
     estimated scf accuracy    <       0.00000013 Ry

     iteration #  6     ecut=    30.00 Ry     beta= 0.70
     Davidson diagonalization with overlap
     ethr =  2.97E-10,  avg # of iterations =  6.3

     total cpu time spent up to now is       51.1 secs

     total energy              =    -333.18327254 Ry
     estimated scf accuracy    <       0.00000031 Ry

     iteration #  7     ecut=    30.00 Ry     beta= 0.70
     Davidson diagonalization with overlap
     ethr =  2.97E-10,  avg # of iterations =  4.2

     total cpu time spent up to now is       51.5 secs

     total energy              =    -333.18327256 Ry
     estimated scf accuracy    <       0.00000003 Ry

     iteration #  8     ecut=    30.00 Ry     beta= 0.70
     Davidson diagonalization with overlap
     ethr =  6.94E-11,  avg # of iterations =  4.2

     total cpu time spent up to now is       51.9 secs

     End of self-consistent calculation

          k = 0.1250 0.1250 0.1250 (  1090 PWs)   bands (ev):

   -44.6551 -21.2668 -21.2639 -21.2631  -6.3343  -5.2605  -5.2548  -3.9519
    -3.9503  -3.9368  -3.7700  -3.7636   4.6650   7.3090   7.3130   8.0971
     9.1324   9.1469   9.8984   9.9487   9.9819  10.1227

          k = 0.1250 0.1250 0.3750 (  1095 PWs)   bands (ev):

   -44.6539 -21.3244 -21.2619 -21.2610  -5.9256  -5.1421  -5.0806  -4.0108
    -3.9463  -3.9333  -3.8616  -3.7384   3.9348   6.8443   7.3385   7.8477
     8.4532   8.7442   9.3969   9.9516  10.1208  10.8873

          k = 0.1250 0.3750 0.3750 (  1087 PWs)   bands (ev):

   -44.6527 -21.3209 -21.3178 -21.2593  -5.7098  -5.0076  -4.9367  -3.9855
    -3.9420  -3.8874  -3.7970  -3.6432   3.5617   6.7976   6.8585   7.1870
     7.4983   8.6841   9.4432   9.5002  10.0664  10.7335

          k = 0.3750 0.3750 0.3750 (  1082 PWs)   bands (ev):

   -44.6514 -21.3183 -21.3155 -21.3153  -5.3046  -5.1340  -5.1294  -3.8972
    -3.8954  -3.6071  -3.5414  -3.5356   4.1654   5.9464   5.9519   6.7179
     7.0410   7.0441   8.0185  10.6885  10.6895  10.7658

          k = 0.3750-0.1250 0.1250 (  1095 PWs)   bands (ev):

   -44.6539 -21.3215 -21.2644 -21.2614  -5.9241  -5.1410  -5.0861  -4.0124
    -3.9454  -3.9334  -3.8609  -3.7351   3.9286   6.8425   7.3481   7.8566
     8.4572   8.7562   9.3868   9.9478  10.1137  10.8796

          k = 0.3750-0.3750 0.1250 (  1087 PWs)   bands (ev):

   -44.6527 -21.3184 -21.3175 -21.2622  -5.7055  -5.0111  -4.9429  -3.9845
    -3.9389  -3.8808  -3.7929  -3.6519   3.5509   6.8147   6.8470   7.1894
     7.4942   8.6886   9.4698   9.4984  10.0605  10.7344

     highest occupied level (ev):    10.8873

!    total energy              =    -333.18327257 Ry
     estimated scf accuracy    <          1.1E-09 Ry

     The total energy is the sum of the following terms:
     one-electron contribution =     -76.64750828 Ry
     hartree contribution      =      66.31159143 Ry
     xc contribution           =     -49.65048858 Ry
     ewald contribution        =    -273.19686715 Ry

     convergence has been achieved in   8 iterations

     Forces acting on atoms (cartesian axes, Ry/au):

     atom    1 type  2   force =     0.00000000    0.00000000    0.00955079
     atom    2 type  3   force =     0.00000000    0.00000000   -0.01395640
     atom    3 type  1   force =     0.00000000    0.00000000    0.00488823
     atom    4 type  1   force =     0.00000000    0.00000000    0.00488823
     atom    5 type  1   force =     0.00000000    0.00000000   -0.00537085

     Total force =     0.008754     Total SCF correction =     0.000003


     Computing stress (Cartesian axis) and pressure

          total   stress  (Ry/bohr**3)                   (kbar)     P=      -12.85
  -0.00008717   0.00000000   0.00000000          -12.82        0.00        0.00
   0.00000000  -0.00008717   0.00000000            0.00      -12.82        0.00
   0.00000000   0.00000000  -0.00008767            0.00        0.00      -12.90

     Energy error            =      2.5E-04 Ry
     Gradient error          =      5.4E-03 Ry/Bohr

     number of scf cycles    =   9
     number of bfgs steps    =   8

     energy             old  =    -333.1830226334 Ry
     energy             new  =    -333.1832725683 Ry

     CASE: energy            _new < energy            _old


     WARNING: bfgs curvature condition failed, Theta= 0.697
     uphill step: resetting bfgs history

     new trust radius        =       0.0053708500 bohr
     new conv_thr            =       0.0000000025 Ry


ATOMIC_POSITIONS (angstrom)
Pb               0.0000000000        0.0000000000        0.0000000000    0   0   0
Ti               1.9375000000        1.9375000000        2.0537500000    0   0   0
O                0.0000000000        1.9375000000        2.0061693349
O                1.9375000000        0.0000000000        2.0061693349
O                1.9375000000        1.9375000000        0.0750142233


     Message from routine punch:
     Nothing written, as per user request (disk_io='none')
     NEW-OLD atomic charge density approx. for the potential

     total cpu time spent up to now is       53.4 secs

     Self-consistent Calculation

     iteration #  1     ecut=    30.00 Ry     beta= 0.70
     Davidson diagonalization with overlap
     ethr =  1.00E-06,  avg # of iterations =  3.0

     Threshold (ethr) on eigenvalues was too large:
     Diagonalizing with lowered threshold

     Davidson diagonalization with overlap
     ethr =  1.58E-08,  avg # of iterations =  4.5

     total cpu time spent up to now is       54.1 secs

     total energy              =    -333.18333325 Ry
     estimated scf accuracy    <       0.00000995 Ry

     iteration #  2     ecut=    30.00 Ry     beta= 0.70
     Davidson diagonalization with overlap
     ethr =  2.26E-08,  avg # of iterations =  2.2

     total cpu time spent up to now is       54.6 secs

     total energy              =    -333.18333579 Ry
     estimated scf accuracy    <       0.00000114 Ry

     iteration #  3     ecut=    30.00 Ry     beta= 0.70
     Davidson diagonalization with overlap
     ethr =  2.60E-09,  avg # of iterations =  2.0

     total cpu time spent up to now is       54.9 secs

     total energy              =    -333.18333601 Ry
     estimated scf accuracy    <       0.00000003 Ry

     iteration #  4     ecut=    30.00 Ry     beta= 0.70
     Davidson diagonalization with overlap
     ethr =  6.98E-11,  avg # of iterations =  5.5

     total cpu time spent up to now is       55.4 secs

     total energy              =    -333.18333603 Ry
     estimated scf accuracy    <       0.00000002 Ry

     iteration #  5     ecut=    30.00 Ry     beta= 0.70
     Davidson diagonalization with overlap
     ethr =  5.56E-11,  avg # of iterations =  4.3

     total cpu time spent up to now is       55.8 secs

     total energy              =    -333.18333603 Ry
     estimated scf accuracy    <          4.2E-09 Ry

     iteration #  6     ecut=    30.00 Ry     beta= 0.70
     Davidson diagonalization with overlap
     ethr =  9.60E-12,  avg # of iterations =  4.2

     total cpu time spent up to now is       56.2 secs

     End of self-consistent calculation

          k = 0.1250 0.1250 0.1250 (  1090 PWs)   bands (ev):

   -44.6536 -21.2661 -21.2625 -21.2617  -6.3347  -5.2612  -5.2555  -3.9518
    -3.9502  -3.9366  -3.7700  -3.7632   4.6652   7.3086   7.3138   8.0968
     9.1315   9.1459   9.8983   9.9477   9.9811  10.1215

          k = 0.1250 0.1250 0.3750 (  1095 PWs)   bands (ev):

   -44.6524 -21.3237 -21.2605 -21.2595  -5.9261  -5.1429  -5.0813  -4.0106
    -3.9461  -3.9332  -3.8612  -3.7382   3.9350   6.8444   7.3383   7.8483
     8.4522   8.7427   9.3959   9.9516  10.1201  10.8869

          k = 0.1250 0.3750 0.3750 (  1087 PWs)   bands (ev):

   -44.6511 -21.3202 -21.3165 -21.2579  -5.7102  -5.0083  -4.9373  -3.9853
    -3.9419  -3.8872  -3.7968  -3.6428   3.5614   6.7976   6.8581   7.1863
     7.4982   8.6838   9.4435   9.4980  10.0662  10.7327

          k = 0.3750 0.3750 0.3750 (  1082 PWs)   bands (ev):

   -44.6499 -21.3177 -21.3141 -21.3138  -5.3049  -5.1344  -5.1301  -3.8971
    -3.8953  -3.6069  -3.5413  -3.5351   4.1644   5.9459   5.9511   6.7183
     7.0402   7.0432   8.0190  10.6876  10.6887  10.7652

          k = 0.3750-0.1250 0.1250 (  1095 PWs)   bands (ev):

   -44.6524 -21.3201 -21.2638 -21.2599  -5.9245  -5.1420  -5.0866  -4.0123
    -3.9452  -3.9332  -3.8606  -3.7348   3.9282   6.8422   7.3475   7.8566
     8.4574   8.7557   9.3853   9.9469  10.1130  10.8787

          k = 0.3750-0.3750 0.1250 (  1087 PWs)   bands (ev):

   -44.6511 -21.3170 -21.3161 -21.2616  -5.7060  -5.0118  -4.9436  -3.9844
    -3.9386  -3.8802  -3.7924  -3.6519   3.5502   6.8146   6.8465   7.1877
     7.4921   8.6885   9.4692   9.4989  10.0607  10.7338

     highest occupied level (ev):    10.8869

!    total energy              =    -333.18333603 Ry
     estimated scf accuracy    <          4.1E-10 Ry

     The total energy is the sum of the following terms:
     one-electron contribution =     -76.67509787 Ry
     hartree contribution      =      66.32563503 Ry
     xc contribution           =     -49.65114360 Ry
     ewald contribution        =    -273.18272959 Ry

     convergence has been achieved in   6 iterations

     Forces acting on atoms (cartesian axes, Ry/au):

     atom    1 type  2   force =     0.00000000    0.00000000    0.00922959
     atom    2 type  3   force =     0.00000000    0.00000000   -0.01411935
     atom    3 type  1   force =     0.00000000    0.00000000    0.00398250
     atom    4 type  1   force =     0.00000000    0.00000000    0.00398250
     atom    5 type  1   force =     0.00000000    0.00000000   -0.00307524

     Total force =     0.006417     Total SCF correction =     0.000041


     Computing stress (Cartesian axis) and pressure

          total   stress  (Ry/bohr**3)                   (kbar)     P=      -12.57
  -0.00008633   0.00000000   0.00000000          -12.70        0.00        0.00
   0.00000000  -0.00008633   0.00000000            0.00      -12.70        0.00
   0.00000000   0.00000000  -0.00008378            0.00        0.00      -12.33

     Energy error            =      6.3E-05 Ry
     Gradient error          =      4.0E-03 Ry/Bohr

     number of scf cycles    =  10
     number of bfgs steps    =   9

     energy             old  =    -333.1832725683 Ry
     energy             new  =    -333.1833360324 Ry

     CASE: energy            _new < energy            _old

     new trust radius        =       0.0059079349 bohr
     new conv_thr            =       0.0000000010 Ry


ATOMIC_POSITIONS (angstrom)
Pb               0.0000000000        0.0000000000        0.0000000000    0   0   0
Ti               1.9375000000        1.9375000000        2.0537500000    0   0   0
O                0.0000000000        1.9375000000        2.0092956794
O                1.9375000000        0.0000000000        2.0092956794
O                1.9375000000        1.9375000000        0.0725413089


     Message from routine punch:
     Nothing written, as per user request (disk_io='none')
     NEW-OLD atomic charge density approx. for the potential

     total cpu time spent up to now is       57.8 secs

     Self-consistent Calculation

     iteration #  1     ecut=    30.00 Ry     beta= 0.70
     Davidson diagonalization with overlap
     ethr =  1.00E-06,  avg # of iterations =  3.0

     Threshold (ethr) on eigenvalues was too large:
     Diagonalizing with lowered threshold

     Davidson diagonalization with overlap
     ethr =  1.77E-08,  avg # of iterations =  4.3

     total cpu time spent up to now is       58.6 secs

     total energy              =    -333.18338512 Ry
     estimated scf accuracy    <       0.00001077 Ry

     iteration #  2     ecut=    30.00 Ry     beta= 0.70
     Davidson diagonalization with overlap
     ethr =  2.45E-08,  avg # of iterations =  2.2

     total cpu time spent up to now is       59.0 secs

     total energy              =    -333.18338780 Ry
     estimated scf accuracy    <       0.00000124 Ry

     iteration #  3     ecut=    30.00 Ry     beta= 0.70
     Davidson diagonalization with overlap
     ethr =  2.82E-09,  avg # of iterations =  2.0

     total cpu time spent up to now is       59.4 secs

     total energy              =    -333.18338804 Ry
     estimated scf accuracy    <       0.00000003 Ry

     iteration #  4     ecut=    30.00 Ry     beta= 0.70
     Davidson diagonalization with overlap
     ethr =  5.84E-11,  avg # of iterations =  6.0

     total cpu time spent up to now is       59.9 secs

     total energy              =    -333.18338806 Ry
     estimated scf accuracy    <       0.00000002 Ry

     iteration #  5     ecut=    30.00 Ry     beta= 0.70
     Davidson diagonalization with overlap
     ethr =  5.08E-11,  avg # of iterations =  4.2

     total cpu time spent up to now is       60.3 secs

     total energy              =    -333.18338807 Ry
     estimated scf accuracy    <          4.8E-09 Ry

     iteration #  6     ecut=    30.00 Ry     beta= 0.70
     Davidson diagonalization with overlap
     ethr =  1.09E-11,  avg # of iterations =  3.7

     total cpu time spent up to now is       60.7 secs

     End of self-consistent calculation

          k = 0.1250 0.1250 0.1250 (  1090 PWs)   bands (ev):

   -44.6525 -21.2657 -21.2616 -21.2606  -6.3352  -5.2622  -5.2561  -3.9515
    -3.9500  -3.9364  -3.7699  -3.7625   4.6654   7.3080   7.3146   8.0965
     9.1310   9.1449   9.8984   9.9476   9.9800  10.1200

          k = 0.1250 0.1250 0.3750 (  1095 PWs)   bands (ev):

   -44.6513 -21.3234 -21.2595 -21.2585  -5.9269  -5.1440  -5.0817  -4.0102
    -3.9459  -3.9330  -3.8605  -3.7380   3.9354   6.8446   7.3382   7.8488
     8.4511   8.7414   9.3949   9.9517  10.1191  10.8865

          k = 0.1250 0.3750 0.3750 (  1087 PWs)   bands (ev):

   -44.6500 -21.3199 -21.3155 -21.2569  -5.7110  -5.0091  -4.9379  -3.9851
    -3.9417  -3.8868  -3.7964  -3.6423   3.5613   6.7980   6.8572   7.1854
     7.4980   8.6832   9.4437   9.4957  10.0660  10.7321

          k = 0.3750 0.3750 0.3750 (  1082 PWs)   bands (ev):

   -44.6488 -21.3174 -21.3131 -21.3129  -5.3054  -5.1351  -5.1306  -3.8968
    -3.8950  -3.6066  -3.5409  -3.5345   4.1633   5.9452   5.9504   6.7187
     7.0390   7.0419   8.0198  10.6869  10.6877  10.7647

          k = 0.3750-0.1250 0.1250 (  1095 PWs)   bands (ev):

   -44.6513 -21.3191 -21.2634 -21.2589  -5.9250  -5.1429  -5.0872  -4.0121
    -3.9450  -3.9328  -3.8601  -3.7343   3.9278   6.8418   7.3467   7.8565
     8.4575   8.7549   9.3840   9.9461  10.1126  10.8780

          k = 0.3750-0.3750 0.1250 (  1087 PWs)   bands (ev):

   -44.6500 -21.3160 -21.3151 -21.2613  -5.7064  -5.0127  -4.9446  -3.9842
    -3.9381  -3.8794  -3.7916  -3.6516   3.5494   6.8143   6.8456   7.1860
     7.4901   8.6884   9.4686   9.4994  10.0612  10.7330

     highest occupied level (ev):    10.8865

!    total energy              =    -333.18338807 Ry
     estimated scf accuracy    <          4.5E-10 Ry

     The total energy is the sum of the following terms:
     one-electron contribution =     -76.70548313 Ry
     hartree contribution      =      66.34111654 Ry
     xc contribution           =     -49.65182795 Ry
     ewald contribution        =    -273.16719352 Ry

     convergence has been achieved in   6 iterations

     Forces acting on atoms (cartesian axes, Ry/au):

     atom    1 type  2   force =     0.00000000    0.00000000    0.00889097
     atom    2 type  3   force =     0.00000000    0.00000000   -0.01428652
     atom    3 type  1   force =     0.00000000    0.00000000    0.00306580
     atom    4 type  1   force =     0.00000000    0.00000000    0.00306580
[...]

     total cpu time spent up to now is      131.6 secs

     total energy              =    -333.18582720 Ry
     estimated scf accuracy    <       0.00000002 Ry

     iteration #  8     ecut=    30.00 Ry     beta= 0.70
     Davidson diagonalization with overlap
     ethr =  5.14E-11,  avg # of iterations =  2.0

     total cpu time spent up to now is      132.0 secs

     total energy              =    -333.18582720 Ry
     estimated scf accuracy    <       0.00000002 Ry

     iteration #  9     ecut=    30.00 Ry     beta= 0.70
     Davidson diagonalization with overlap
     ethr =  4.11E-11,  avg # of iterations =  4.3

     total cpu time spent up to now is      132.4 secs

     End of self-consistent calculation

          k = 0.1250 0.1250 0.1250 (  1090 PWs)   bands (ev):

   -44.6578 -21.2911 -21.2673 -21.2664  -6.4302  -5.3830  -5.2495  -3.8774
    -3.8762  -3.8509  -3.7086  -3.6165   4.6896   7.1949   7.2998   8.0676
     9.0548   9.0700   9.6768   9.7730   9.9328  10.2560

          k = 0.1250 0.1250 0.3750 (  1095 PWs)   bands (ev):

   -44.6566 -21.3489 -21.2652 -21.2643  -6.0582  -5.2864  -5.0487  -3.9201
    -3.8626  -3.8493  -3.7092  -3.6716   3.9717   6.8422   7.1358   7.7048
     8.5405   8.6698   9.3391   9.8434  10.0108  10.9497

          k = 0.1250 0.3750 0.3750 (  1087 PWs)   bands (ev):

   -44.6553 -21.3453 -21.3206 -21.2626  -5.8236  -5.1554  -4.9509  -3.9023
    -3.8582  -3.8014  -3.6948  -3.5123   3.6153   6.5971   6.9286   7.1288
     7.4317   8.6252   9.3674   9.4422  10.1575  10.6689

          k = 0.3750 0.3750 0.3750 (  1082 PWs)   bands (ev):

   -44.6540 -21.3427 -21.3181 -21.3180  -5.4136  -5.2683  -5.1279  -3.8137
    -3.8112  -3.5514  -3.4474  -3.4217   4.0670   5.8902   5.9515   6.6190
     7.1009   7.1009   8.2377  10.5662  10.6203  10.7040

          k = 0.3750-0.1250 0.1250 (  1095 PWs)   bands (ev):

   -44.6566 -21.3244 -21.2887 -21.2647  -6.0097  -5.2505  -5.1788  -3.9328
    -3.8669  -3.8455  -3.7198  -3.6167   3.9384   6.7956   7.2994   7.8115
     8.3627   8.7772   9.3187   9.8468   9.9716  10.9292

          k = 0.3750-0.3750 0.1250 (  1087 PWs)   bands (ev):

   -44.6553 -21.3213 -21.3203 -21.2863  -5.7187  -5.1658  -5.1330  -3.9027
    -3.8371  -3.7352  -3.6335  -3.5757   3.4661   6.7399   6.8173   7.1924
     7.5529   8.7170   9.4683   9.4783  10.1327  10.6049

     highest occupied level (ev):    10.9497

!    total energy              =    -333.18582720 Ry
     estimated scf accuracy    <          1.4E-10 Ry

     The total energy is the sum of the following terms:
     one-electron contribution =     -77.98750087 Ry
     hartree contribution      =      66.98539572 Ry
     xc contribution           =     -49.67984695 Ry
     ewald contribution        =    -272.50387510 Ry

     convergence has been achieved in   9 iterations

     Forces acting on atoms (cartesian axes, Ry/au):

     atom    1 type  2   force =     0.00000000    0.00000000    0.00197290
     atom    2 type  3   force =     0.00000000    0.00000000   -0.00671292
     atom    3 type  1   force =     0.00000000    0.00000000   -0.00153095
     atom    4 type  1   force =     0.00000000    0.00000000   -0.00153095
     atom    5 type  1   force =     0.00000000    0.00000000    0.00780192

     Total force =     0.008097     Total SCF correction =     0.000007


     Computing stress (Cartesian axis) and pressure

          total   stress  (Ry/bohr**3)                   (kbar)     P=        1.22
  -0.00003788   0.00000000   0.00000000           -5.57        0.00        0.00
   0.00000000  -0.00003788   0.00000000            0.00       -5.57        0.00
   0.00000000   0.00000000   0.00010071            0.00        0.00       14.81

     Energy error            =      4.2E-04 Ry
     Gradient error          =      7.8E-03 Ry/Bohr

     number of scf cycles    =  24
     number of bfgs steps    =  23

     energy             old  =    -333.1854083074 Ry
     energy             new  =    -333.1858272004 Ry

     CASE: energy            _new < energy            _old

     new trust radius        =       0.0335179753 bohr
     new conv_thr            =       0.0000000042 Ry


ATOMIC_POSITIONS (angstrom)
Pb               0.0000000000        0.0000000000        0.0000000000    0   0   0
Ti               1.9375000000        1.9375000000        2.0537500000    0   0   0
O                0.0000000000        1.9375000000        2.2239335900
O                1.9375000000        0.0000000000        2.2239335900
O                1.9375000000        1.9375000000        0.2380382631


     Message from routine punch:
     Nothing written, as per user request (disk_io='none')
     NEW-OLD atomic charge density approx. for the potential

     total cpu time spent up to now is      134.0 secs

     Self-consistent Calculation

     iteration #  1     ecut=    30.00 Ry     beta= 0.70
     Davidson diagonalization with overlap
     ethr =  1.00E-06,  avg # of iterations =  6.8

     total cpu time spent up to now is      134.6 secs

     total energy              =    -333.18588112 Ry
     estimated scf accuracy    <       0.00022478 Ry

     iteration #  2     ecut=    30.00 Ry     beta= 0.70
     Davidson diagonalization with overlap
     ethr =  5.11E-07,  avg # of iterations =  4.5

     total cpu time spent up to now is      135.0 secs

     total energy              =    -333.18588625 Ry
     estimated scf accuracy    <       0.00018574 Ry

     iteration #  3     ecut=    30.00 Ry     beta= 0.70
     Davidson diagonalization with overlap
     ethr =  4.22E-07,  avg # of iterations =  4.5

     total cpu time spent up to now is      135.4 secs

     total energy              =    -333.18593146 Ry
     estimated scf accuracy    <       0.00004313 Ry

     iteration #  4     ecut=    30.00 Ry     beta= 0.70
     Davidson diagonalization with overlap
     ethr =  9.80E-08,  avg # of iterations =  3.2

     total cpu time spent up to now is      135.8 secs

     total energy              =    -333.18593669 Ry
     estimated scf accuracy    <       0.00000279 Ry

     iteration #  5     ecut=    30.00 Ry     beta= 0.70
     Davidson diagonalization with overlap
     ethr =  6.33E-09,  avg # of iterations =  5.2

     total cpu time spent up to now is      136.3 secs

     total energy              =    -333.18593885 Ry
     estimated scf accuracy    <       0.00000257 Ry

     iteration #  6     ecut=    30.00 Ry     beta= 0.70
     Davidson diagonalization with overlap
     ethr =  5.84E-09,  avg # of iterations =  2.0

     total cpu time spent up to now is      136.7 secs

     total energy              =    -333.18593859 Ry
     estimated scf accuracy    <       0.00000122 Ry

     iteration #  7     ecut=    30.00 Ry     beta= 0.70
     Davidson diagonalization with overlap
     ethr =  2.77E-09,  avg # of iterations =  4.5

     total cpu time spent up to now is      137.1 secs

     total energy              =    -333.18593892 Ry
     estimated scf accuracy    <       0.00000006 Ry

     iteration #  8     ecut=    30.00 Ry     beta= 0.70
     Davidson diagonalization with overlap
     ethr =  1.41E-10,  avg # of iterations =  4.2

     total cpu time spent up to now is      137.6 secs

     total energy              =    -333.18593893 Ry
     estimated scf accuracy    <       0.00000001 Ry

     iteration #  9     ecut=    30.00 Ry     beta= 0.70
     Davidson diagonalization with overlap
     ethr =  2.84E-11,  avg # of iterations =  4.3

     total cpu time spent up to now is      138.0 secs

     End of self-consistent calculation

          k = 0.1250 0.1250 0.1250 (  1090 PWs)   bands (ev):

   -44.6365 -21.2854 -21.2459 -21.2450  -6.4325  -5.3847  -5.2552  -3.8770
    -3.8753  -3.8501  -3.7094  -3.6106   4.6868   7.1924   7.2994   8.0752
     9.0285   9.0608   9.6343   9.7610   9.9332  10.2483

          k = 0.1250 0.1250 0.3750 (  1095 PWs)   bands (ev):

   -44.6353 -21.3435 -21.2437 -21.2428  -6.0586  -5.2886  -5.0559  -3.9191
    -3.8613  -3.8486  -3.7029  -3.6730   3.9628   6.8406   7.1200   7.7072
     8.5391   8.6486   9.3318   9.8319  10.0105  10.9552

          k = 0.1250 0.3750 0.3750 (  1087 PWs)   bands (ev):

   -44.6340 -21.3398 -21.2992 -21.2412  -5.8243  -5.1602  -4.9600  -3.9015
    -3.8572  -3.8012  -3.6924  -3.5063   3.6143   6.5760   6.9325   7.1347
     7.4277   8.6282   9.3636   9.4218  10.1572  10.6569

          k = 0.3750 0.3750 0.3750 (  1082 PWs)   bands (ev):

   -44.6327 -21.3372 -21.2968 -21.2966  -5.4166  -5.2720  -5.1340  -3.8133
    -3.8094  -3.5548  -3.4457  -3.4164   4.0600   5.8858   5.9459   6.6151
     7.1086   7.1160   8.2468  10.5640  10.6009  10.6885

          k = 0.3750-0.1250 0.1250 (  1095 PWs)   bands (ev):

   -44.6353 -21.3030 -21.2829 -21.2433  -6.0128  -5.2553  -5.1860  -3.9315
    -3.8659  -3.8454  -3.7151  -3.6123   3.9375   6.7982   7.2947   7.8134
     8.3545   8.7795   9.2926   9.8352   9.9490  10.9262

          k = 0.3750-0.3750 0.1250 (  1087 PWs)   bands (ev):

   -44.6340 -21.3000 -21.2989 -21.2806  -5.7249  -5.1717  -5.1384  -3.9008
    -3.8357  -3.7309  -3.6271  -3.5776   3.4618   6.7402   6.8255   7.1849
     7.5490   8.7171   9.4583   9.4740  10.1320  10.6016

     highest occupied level (ev):    10.9552

!    total energy              =    -333.18593893 Ry
     estimated scf accuracy    <          9.4E-11 Ry

     The total energy is the sum of the following terms:
     one-electron contribution =     -78.13728838 Ry
     hartree contribution      =      67.06526701 Ry
     xc contribution           =     -49.68617442 Ry
     ewald contribution        =    -272.42774315 Ry

     convergence has been achieved in   9 iterations

     Forces acting on atoms (cartesian axes, Ry/au):

     atom    1 type  2   force =     0.00000000    0.00000000    0.00195219
     atom    2 type  3   force =     0.00000000    0.00000000   -0.00240390
     atom    3 type  1   force =     0.00000000    0.00000000    0.00035557
     atom    4 type  1   force =     0.00000000    0.00000000    0.00035557
     atom    5 type  1   force =     0.00000000    0.00000000   -0.00025944

     Total force =     0.000566     Total SCF correction =     0.000008


     Computing stress (Cartesian axis) and pressure

          total   stress  (Ry/bohr**3)                   (kbar)     P=        4.99
  -0.00002932   0.00000000   0.00000000           -4.31        0.00        0.00
   0.00000000  -0.00002932   0.00000000            0.00       -4.31        0.00
   0.00000000   0.00000000   0.00016035            0.00        0.00       23.59

     Energy error            =      1.1E-04 Ry
     Gradient error          =      3.6E-04 Ry/Bohr

     number of scf cycles    =  25
     number of bfgs steps    =  24

     energy             old  =    -333.1858272004 Ry
     energy             new  =    -333.1859389339 Ry

     CASE: energy            _new < energy            _old

     new trust radius        =       0.0055625080 bohr
     new conv_thr            =       0.0000000010 Ry


ATOMIC_POSITIONS (angstrom)
Pb               0.0000000000        0.0000000000        0.0000000000    0   0   0
Ti               1.9375000000        1.9375000000        2.0537500000    0   0   0
O                0.0000000000        1.9375000000        2.2268771425
O                1.9375000000        0.0000000000        2.2268771425
O                1.9375000000        1.9375000000        0.2395030245


     Message from routine punch:
     Nothing written, as per user request (disk_io='none')
     NEW-OLD atomic charge density approx. for the potential

     total cpu time spent up to now is      139.5 secs

     Self-consistent Calculation

     iteration #  1     ecut=    30.00 Ry     beta= 0.70
     Davidson diagonalization with overlap
     ethr =  1.00E-06,  avg # of iterations =  3.0

     Threshold (ethr) on eigenvalues was too large:
     Diagonalizing with lowered threshold

     Davidson diagonalization with overlap
     ethr =  7.74E-09,  avg # of iterations =  6.2

     total cpu time spent up to now is      140.3 secs

     total energy              =    -333.18594040 Ry
     estimated scf accuracy    <       0.00000536 Ry

     iteration #  2     ecut=    30.00 Ry     beta= 0.70
     Davidson diagonalization with overlap
     ethr =  1.22E-08,  avg # of iterations =  2.2

     total cpu time spent up to now is      140.7 secs

     total energy              =    -333.18594119 Ry
     estimated scf accuracy    <       0.00000032 Ry

     iteration #  3     ecut=    30.00 Ry     beta= 0.70
     Davidson diagonalization with overlap
     ethr =  7.26E-10,  avg # of iterations =  3.2

     total cpu time spent up to now is      141.1 secs

     total energy              =    -333.18594126 Ry
     estimated scf accuracy    <       0.00000006 Ry

     iteration #  4     ecut=    30.00 Ry     beta= 0.70
     Davidson diagonalization with overlap
     ethr =  1.40E-10,  avg # of iterations =  4.7

     total cpu time spent up to now is      141.5 secs

     total energy              =    -333.18594128 Ry
     estimated scf accuracy    <       0.00000003 Ry

     iteration #  5     ecut=    30.00 Ry     beta= 0.70
     Davidson diagonalization with overlap
     ethr =  7.54E-11,  avg # of iterations =  4.2

     total cpu time spent up to now is      141.9 secs

     total energy              =    -333.18594128 Ry
     estimated scf accuracy    <          2.7E-09 Ry

     iteration #  6     ecut=    30.00 Ry     beta= 0.70
     Davidson diagonalization with overlap
     ethr =  6.21E-12,  avg # of iterations =  3.0

     total cpu time spent up to now is      142.3 secs

     End of self-consistent calculation

          k = 0.1250 0.1250 0.1250 (  1090 PWs)   bands (ev):

   -44.6357 -21.2858 -21.2450 -21.2441  -6.4345  -5.3866  -5.2552  -3.8754
    -3.8737  -3.8483  -3.7081  -3.6072   4.6873   7.1894   7.2990   8.0740
     9.0256   9.0590   9.6288   9.7579   9.9325  10.2490

          k = 0.1250 0.1250 0.3750 (  1095 PWs)   bands (ev):

   -44.6345 -21.3438 -21.2428 -21.2419  -6.0609  -5.2908  -5.0557  -3.9173
    -3.8596  -3.8468  -3.6994  -3.6716   3.9632   6.8397   7.1138   7.7042
     8.5420   8.6458   9.3316   9.8288  10.0088  10.9575

          k = 0.1250 0.3750 0.3750 (  1087 PWs)   bands (ev):

   -44.6332 -21.3402 -21.2982 -21.2403  -5.8262  -5.1633  -4.9606  -3.8999
    -3.8553  -3.7994  -3.6901  -3.5034   3.6153   6.5722   6.9333   7.1345
     7.4259   8.6280   9.3627   9.4200  10.1592  10.6552

          k = 0.3750 0.3750 0.3750 (  1082 PWs)   bands (ev):

   -44.6319 -21.3376 -21.2958 -21.2957  -5.4191  -5.2746  -5.1343  -3.8116
    -3.8075  -3.5537  -3.4436  -3.4138   4.0579   5.8852   5.9456   6.6127
     7.1115   7.1198   8.2515  10.5618  10.5985  10.6864

          k = 0.3750-0.1250 0.1250 (  1095 PWs)   bands (ev):

   -44.6345 -21.3021 -21.2833 -21.2424  -6.0149  -5.2578  -5.1873  -3.9297
    -3.8642  -3.8435  -3.7124  -3.6095   3.9376   6.7983   7.2941   7.8121
     8.3527   8.7809   9.2903   9.8325   9.9451  10.9269

          k = 0.3750-0.3750 0.1250 (  1087 PWs)   bands (ev):

   -44.6332 -21.2991 -21.2979 -21.2809  -5.7260  -5.1744  -5.1419  -3.8989
    -3.8337  -3.7281  -3.6236  -3.5759   3.4601   6.7393   6.8260   7.1852
     7.5507   8.7178   9.4579   9.4750  10.1335  10.5994

     highest occupied level (ev):    10.9575

!    total energy              =    -333.18594128 Ry
     estimated scf accuracy    <          1.8E-10 Ry

     The total energy is the sum of the following terms:
     one-electron contribution =     -78.16467607 Ry
     hartree contribution      =      67.07933746 Ry
     xc contribution           =     -49.68688254 Ry
     ewald contribution        =    -272.41372013 Ry

     convergence has been achieved in   6 iterations

     Forces acting on atoms (cartesian axes, Ry/au):

     atom    1 type  2   force =     0.00000000    0.00000000    0.00192166
     atom    2 type  3   force =     0.00000000    0.00000000   -0.00198090
     atom    3 type  1   force =     0.00000000    0.00000000    0.00009305
     atom    4 type  1   force =     0.00000000    0.00000000    0.00009305
     atom    5 type  1   force =     0.00000000    0.00000000   -0.00012687

     Total force =     0.000183     Total SCF correction =     0.000013


     Computing stress (Cartesian axis) and pressure

          total   stress  (Ry/bohr**3)                   (kbar)     P=        5.34
  -0.00002877   0.00000000   0.00000000           -4.23        0.00        0.00
   0.00000000  -0.00002877   0.00000000            0.00       -4.23        0.00
   0.00000000   0.00000000   0.00016636            0.00        0.00       24.47

     Energy error            =      2.4E-06 Ry
     Gradient error          =      1.3E-04 Ry/Bohr

     bfgs converged in  26 scf cycles and  25 bfgs steps
     (criteria: energy <  1.0E-04 Ry, force <  1.0E-03 Ry/Bohr)

     End of BFGS Geometry Optimization

     Final energy             =    -333.1859412844 Ry

     File /home/bond/Work/Lab4/Problem2/PbTiO3_a_3.875_ecut_30_nk_4_displ_0.03/pwscf.bfgs deleted, as requested
Begin final coordinates

ATOMIC_POSITIONS (angstrom)
Pb               0.0000000000        0.0000000000        0.0000000000    0   0   0
Ti               1.9375000000        1.9375000000        2.0537500000    0   0   0
O                0.0000000000        1.9375000000        2.2268771425
O                1.9375000000        0.0000000000        2.2268771425
O                1.9375000000        1.9375000000        0.2395030245
End final coordinates


     Message from routine punch:
     Nothing written, as per user request (disk_io='none')

     init_run     :      1.17s CPU      1.26s WALL (       1 calls)
     electrons    :     87.17s CPU    101.60s WALL (      26 calls)
     update_pot   :      0.15s CPU      0.16s WALL (      25 calls)
     forces       :      3.48s CPU      4.19s WALL (      26 calls)
     stress       :     30.71s CPU     32.69s WALL (      26 calls)

     Called by init_run:
     wfcinit      :      0.10s CPU      0.10s WALL (       1 calls)
     potinit      :      0.10s CPU      0.10s WALL (       1 calls)
     hinit0       :      0.77s CPU      0.80s WALL (       1 calls)

     Called by electrons:
     c_bands      :     38.98s CPU     42.00s WALL (     226 calls)
     sum_band     :     27.53s CPU     33.51s WALL (     226 calls)
     v_of_rho     :      0.72s CPU      0.77s WALL (     242 calls)
     newd         :     21.78s CPU     27.83s WALL (     242 calls)
     mix_rho      :      0.37s CPU      0.41s WALL (     226 calls)

     Called by c_bands:
     init_us_2    :      1.17s CPU      1.25s WALL (    3030 calls)
     cegterg      :     36.54s CPU     39.42s WALL (    1356 calls)

     Called by *egterg:
     cdiaghg      :      4.89s CPU      5.20s WALL (    6912 calls)
     h_psi        :     24.91s CPU     27.05s WALL (    7128 calls)
     s_psi        :      1.07s CPU      1.17s WALL (    7128 calls)
     g_psi        :      0.18s CPU      0.19s WALL (    5766 calls)

     Called by h_psi:
     h_psi:calbec :      1.91s CPU      2.11s WALL (    7128 calls)
     vloc_psi     :     21.58s CPU     23.39s WALL (    7128 calls)
     add_vuspsi   :      1.21s CPU      1.33s WALL (    7128 calls)

     General routines
     calbec       :      3.24s CPU      3.52s WALL (   11136 calls)
     fft          :      1.25s CPU      1.33s WALL (    1565 calls)
     ffts         :      0.12s CPU      0.13s WALL (     468 calls)
     fftw         :     19.71s CPU     21.43s WALL (  211910 calls)
     interpolate  :      0.25s CPU      0.27s WALL (     242 calls)

     Parallel routines

     PWSCF        :   2m 5.64s CPU   2m23.65s WALL


   This run was terminated on:  13: 8:34  21Oct2025            

=------------------------------------------------------------------------------=
   JOB DONE.
=------------------------------------------------------------------------------=
