
     Program PWSCF v.7.4.1 starts on 20Oct2025 at 17:55:32 

     This program is part of the open-source Quantum ESPRESSO suite
     for quantum simulation of materials; please cite
         "P. Giannozzi et al., J. Phys.:Condens. Matter 21 395502 (2009);
         "P. Giannozzi et al., J. Phys.:Condens. Matter 29 465901 (2017);
         "P. Giannozzi et al., J. Chem. Phys. 152 154105 (2020);
          URL http://www.quantum-espresso.org", 
     in publications or presentations arising from this work. More details at
     http://www.quantum-espresso.org/quote

     Parallel version (MPI), running on     2 processors

     MPI processes distributed on     1 nodes
     277 MiB available memory on the printing compute node when the environment starts

     Waiting for input...
     Reading input from standard input

     Current dimensions of program PWSCF are:
     Max number of different atomic species (ntypx) = 10
     Max number of k-points (npk) =  40000
     Max angular momentum in pseudopotentials (lmaxx) =  4
     file Fe.pbe-nd-rrkjus.UPF: wavefunction(s)  4S renormalized
     Message from routine setup:
     using ibrav=0 with symmetry is DISCOURAGED, use correct ibrav instead

     R & G space division:  proc/nbgrp/npool/nimage =       2
     Subspace diagonalization in iterative solution of the eigenvalue problem:
     a serial algorithm will be used


     Parallelization info
     --------------------
     sticks:   dense  smooth     PW     G-vecs:    dense   smooth      PW
     Min         218      86     31                 2887      739     160
     Max         219      87     32                 2888      742     161
     Sum         437     173     63                 5775     1481     321

     Using Slab Decomposition



     bravais-lattice index     =            0
     lattice parameter (alat)  =       4.4187  a.u.
     unit-cell volume          =      66.4137 (a.u.)^3
     number of atoms/cell      =            1
     number of atomic types    =            1
     number of electrons       =         8.00
     number of Kohn-Sham states=            8
     kinetic-energy cutoff     =      30.0000  Ry
     charge density cutoff     =     300.0000  Ry
     scf convergence threshold =      1.0E-07
     mixing beta               =       0.5000
     number of iterations used =            8  plain     mixing
     energy convergence thresh.=      1.0E-04
     force convergence thresh. =      1.0E-03
     press convergence thresh. =      5.0E-01
     Exchange-correlation=  SLA  PW   PBE  PBE
                           (   1   4   3   4   0   0   0)
     nstep                     =           50


     celldm(1)=   4.418687  celldm(2)=   0.000000  celldm(3)=   0.000000
     celldm(4)=   0.000000  celldm(5)=   0.000000  celldm(6)=   0.000000

     crystal axes: (cart. coord. in units of alat)
               a(1) = (  -0.577350   0.577350   0.577350 )  
               a(2) = (   0.577350  -0.577350   0.577350 )  
               a(3) = (   0.577350   0.577350  -0.577350 )  

     reciprocal axes: (cart. coord. in units 2 pi/alat)
               b(1) = (  0.000000  0.866025  0.866025 )  
               b(2) = (  0.866025  0.000000  0.866025 )  
               b(3) = (  0.866025  0.866025  0.000000 )  


     PseudoPot. # 1 for Fe read from file:
     /home/bond/Software/QE/qe-7.4.1/pseudo/Fe.pbe-nd-rrkjus.UPF
     MD5 check sum: 398036227a04b607635f6f5e8dfd8242
     Pseudo is Ultrasoft + core correction, Zval =  8.0
     Generated by new atomic code, or converted to UPF format
     Using radial grid of  957 points,  6 beta functions with: 
                l(1) =   0
                l(2) =   0
                l(3) =   1
                l(4) =   1
                l(5) =   2
                l(6) =   2
     Q(r) pseudized with 0 coefficients 


     atomic species   valence    mass     pseudopotential
     Fe                8.00    55.84500     Fe( 1.00)

     Starting magnetic structure 
     atomic species   magnetization
     Fe              0.700

     48 Sym. Ops., with inversion, found



   Cartesian axes

     site n.     atom                  positions (alat units)
         1        Fe     tau(   1) = (   0.0000000   0.0000000   0.0000000  )

     number of k points=    35  Methfessel-Paxton smearing, width (Ry)=  0.0200
                       cart. coord. in units 2pi/alat
        k(    1) = (   0.0000000   0.0000000   0.0000000), wk =   0.0013717
        k(    2) = (   0.0962250   0.0962250   0.0000000), wk =   0.0164609
        k(    3) = (   0.1924501   0.1924501   0.0000000), wk =   0.0164609
        k(    4) = (   0.2886751   0.2886751   0.0000000), wk =   0.0164609
        k(    5) = (   0.3849002   0.3849002   0.0000000), wk =   0.0164609
        k(    6) = (   0.1924501   0.0962250   0.0962250), wk =   0.0329218
        k(    7) = (   0.2886751   0.1924501   0.0962250), wk =   0.0658436
        k(    8) = (   0.3849002   0.2886751   0.0962250), wk =   0.0658436
        k(    9) = (   0.4811252   0.3849002   0.0962250), wk =   0.0329218
        k(   10) = (   0.3849002   0.1924501   0.1924501), wk =   0.0329218
        k(   11) = (   0.4811252   0.2886751   0.1924501), wk =   0.0658436
        k(   12) = (   0.5773503   0.2886751   0.2886751), wk =   0.0109739
        k(   13) = (   0.1924501   0.1924501   0.1924501), wk =   0.0109739
        k(   14) = (   0.2886751   0.2886751   0.1924501), wk =   0.0329218
        k(   15) = (   0.3849002   0.3849002   0.1924501), wk =   0.0329218
        k(   16) = (  -0.0000000  -0.0000000   0.1924501), wk =   0.0082305
        k(   17) = (   0.3849002   0.2886751   0.2886751), wk =   0.0329218
        k(   18) = (   0.4811252   0.3849002   0.2886751), wk =   0.0329218
        k(   19) = (   0.0000000  -0.0962250   0.2886751), wk =   0.0329218
        k(   20) = (  -0.0000000  -0.1924501   0.3849002), wk =   0.0329218
        k(   21) = (   0.0962250  -0.0962250   0.3849002), wk =   0.0329218
        k(   22) = (   0.0000000  -0.2886751   0.4811252), wk =   0.0329218
        k(   23) = (   0.0962250  -0.1924501   0.4811252), wk =   0.0658436
        k(   24) = (  -0.7698004  -0.2886751  -0.2886751), wk =   0.0329218
        k(   25) = (  -0.6735753  -0.1924501  -0.2886751), wk =   0.0329218
        k(   26) = (   0.3849002   0.3849002   0.3849002), wk =   0.0109739
        k(   27) = (   0.0000000   0.0000000   0.3849002), wk =   0.0082305
        k(   28) = (  -0.0000000  -0.0962250   0.4811252), wk =   0.0329218
        k(   29) = (   0.0000000  -0.1924501   0.5773503), wk =   0.0329218
        k(   30) = (   0.0962250  -0.0962250   0.5773503), wk =   0.0329218
        k(   31) = (  -0.7698004  -0.1924501  -0.1924501), wk =   0.0329218
        k(   32) = (  -0.0000000  -0.0000000   0.5773503), wk =   0.0082305
        k(   33) = (   0.0000000  -0.0962250   0.6735753), wk =   0.0329218
        k(   34) = (  -0.7698004  -0.0962250  -0.0962250), wk =   0.0109739
        k(   35) = (   0.0000000   0.0000000   0.7698004), wk =   0.0082305

     Dense  grid:     5775 G-vectors     FFT dimensions: (  25,  25,  25)

     Smooth grid:     1481 G-vectors     FFT dimensions: (  15,  15,  15)

     Estimated max dynamical RAM per process >      15.46 MB

     Estimated total dynamical RAM >      30.92 MB

     Check: negative core charge=   -0.000001
     Generating pointlists ...
     new r_m :   0.4125 (alat units)  1.8227 (a.u.) for type    1

     Initial potential from superposition of free atoms

     starting charge       7.9994, renormalised to       8.0000
     Starting wfcs are    6 randomized atomic wfcs +    2 random wfcs

     total cpu time spent up to now is        0.4 secs

     Self-consistent Calculation

     iteration #  1     ecut=    30.00 Ry     beta= 0.50
     Davidson diagonalization with overlap
     ethr =  1.00E-02,  avg # of iterations =  4.4

     total cpu time spent up to now is        0.6 secs

     total energy              =     -55.66546087 Ry
     estimated scf accuracy    <       0.29367181 Ry

     total magnetization       =     2.90 Bohr mag/cell
     absolute magnetization    =     2.90 Bohr mag/cell

     iteration #  2     ecut=    30.00 Ry     beta= 0.50
     Davidson diagonalization with overlap
     ethr =  3.67E-03,  avg # of iterations =  1.7

     total cpu time spent up to now is        0.7 secs

     total energy              =     -55.75995032 Ry
     estimated scf accuracy    <       0.03562921 Ry

     total magnetization       =     2.58 Bohr mag/cell
     absolute magnetization    =     2.59 Bohr mag/cell

     iteration #  3     ecut=    30.00 Ry     beta= 0.50
     Davidson diagonalization with overlap
     ethr =  4.45E-04,  avg # of iterations =  1.3

     total cpu time spent up to now is        0.9 secs

     total energy              =     -55.77998615 Ry
     estimated scf accuracy    <       0.00972142 Ry

     total magnetization       =     2.51 Bohr mag/cell
     absolute magnetization    =     2.54 Bohr mag/cell

     iteration #  4     ecut=    30.00 Ry     beta= 0.50
     Davidson diagonalization with overlap
     ethr =  1.22E-04,  avg # of iterations =  1.5

     total cpu time spent up to now is        1.0 secs

     total energy              =     -55.78654928 Ry
     estimated scf accuracy    <       0.00162447 Ry

     total magnetization       =     2.12 Bohr mag/cell
     absolute magnetization    =     2.23 Bohr mag/cell

     iteration #  5     ecut=    30.00 Ry     beta= 0.50
     Davidson diagonalization with overlap
     ethr =  2.03E-05,  avg # of iterations =  4.5

     total cpu time spent up to now is        1.1 secs

     total energy              =     -55.78800382 Ry
     estimated scf accuracy    <       0.00189327 Ry

     total magnetization       =     2.14 Bohr mag/cell
     absolute magnetization    =     2.25 Bohr mag/cell

     iteration #  6     ecut=    30.00 Ry     beta= 0.50
     Davidson diagonalization with overlap
     ethr =  2.03E-05,  avg # of iterations =  1.0

     total cpu time spent up to now is        1.3 secs

     total energy              =     -55.78860649 Ry
     estimated scf accuracy    <       0.00062065 Ry

     total magnetization       =     2.09 Bohr mag/cell
     absolute magnetization    =     2.19 Bohr mag/cell

     iteration #  7     ecut=    30.00 Ry     beta= 0.50
     Davidson diagonalization with overlap
     ethr =  7.76E-06,  avg # of iterations =  1.6

     total cpu time spent up to now is        1.4 secs

     total energy              =     -55.78891611 Ry
     estimated scf accuracy    <       0.00012241 Ry

     total magnetization       =     2.08 Bohr mag/cell
     absolute magnetization    =     2.17 Bohr mag/cell

     iteration #  8     ecut=    30.00 Ry     beta= 0.50
     Davidson diagonalization with overlap
     ethr =  1.53E-06,  avg # of iterations =  3.3

     total cpu time spent up to now is        1.5 secs

     total energy              =     -55.78890834 Ry
     estimated scf accuracy    <       0.00005117 Ry

     total magnetization       =     2.09 Bohr mag/cell
     absolute magnetization    =     2.18 Bohr mag/cell

     iteration #  9     ecut=    30.00 Ry     beta= 0.50
     Davidson diagonalization with overlap
     ethr =  6.40E-07,  avg # of iterations =  1.8

     total cpu time spent up to now is        1.6 secs

     total energy              =     -55.78893508 Ry
     estimated scf accuracy    <       0.00001485 Ry

     total magnetization       =     2.09 Bohr mag/cell
     absolute magnetization    =     2.18 Bohr mag/cell

     iteration # 10     ecut=    30.00 Ry     beta= 0.50
     Davidson diagonalization with overlap
     ethr =  1.86E-07,  avg # of iterations =  1.9

     total cpu time spent up to now is        1.7 secs

     total energy              =     -55.78893875 Ry
     estimated scf accuracy    <       0.00000263 Ry

     total magnetization       =     2.09 Bohr mag/cell
     absolute magnetization    =     2.18 Bohr mag/cell

     iteration # 11     ecut=    30.00 Ry     beta= 0.50
     Davidson diagonalization with overlap
     ethr =  3.28E-08,  avg # of iterations =  3.5

     Magnetic moment per site  (integrated on atomic sphere of radius R)
     atom   1 (R=0.413)  charge=  6.3586  magn=  2.1173

     total cpu time spent up to now is        1.8 secs

     End of self-consistent calculation

 ------ SPIN UP ------------


          k = 0.0000 0.0000 0.0000 (   177 PWs)   bands (ev):

     7.0775  13.6212  13.6212  13.6212  15.1347  15.1347  42.3805  42.3805

          k = 0.0962 0.0962 0.0000 (   189 PWs)   bands (ev):

     7.6465  13.4506  13.5937  13.9541  14.9837  15.1493  39.9309  41.7203

          k = 0.1925 0.1925 0.0000 (   186 PWs)   bands (ev):

     9.1281  13.0360  13.4599  14.8525  14.9002  15.2043  35.1344  39.5374

          k = 0.2887 0.2887 0.0000 (   182 PWs)   bands (ev):

    10.3950  12.5902  14.1567  15.1283  15.2970  15.9943  29.9562  37.2753

          k = 0.3849 0.3849 0.0000 (   182 PWs)   bands (ev):

    10.5235  12.3120  15.1894  15.3759  16.4720  16.8336  25.8298  35.9649

          k = 0.1925 0.0962 0.0962 (   184 PWs)   bands (ev):

     8.6941  13.2531  13.3205  14.6553  14.8035  15.2458  37.3028  38.7354

          k = 0.2887 0.1925 0.0962 (   182 PWs)   bands (ev):

    10.2577  12.8100  13.2041  14.8557  15.3791  15.9177  32.7037  36.1366

          k = 0.3849 0.2887 0.0962 (   182 PWs)   bands (ev):

    10.8471  12.4596  14.1010  15.1386  15.6501  17.5663  27.8089  34.5360

          k = 0.4811 0.3849 0.0962 (   186 PWs)   bands (ev):

    10.7940  12.3339  14.6388  15.1944  16.0646  18.9476  25.1263  33.9464

          k = 0.3849 0.1925 0.1925 (   181 PWs)   bands (ev):

    11.3697  12.4622  13.1341  14.9609  15.5772  17.9005  30.3753  31.5039

          k = 0.4811 0.2887 0.1925 (   182 PWs)   bands (ev):

    11.5256  12.3985  13.4192  15.2065  15.7470  20.5870  26.2662  29.9606

          k = 0.5774 0.2887 0.2887 (   185 PWs)   bands (ev):

    11.9476  12.6772  12.6772  15.5152  15.5152  24.1456  24.1456  27.3544

          k = 0.1925 0.1925 0.1925 (   180 PWs)   bands (ev):

    10.0557  12.8229  12.8229  15.1170  15.1170  15.9504  35.1148  35.1148

          k = 0.2887 0.2887 0.1925 (   179 PWs)   bands (ev):

    11.3306  12.4348  12.9276  15.1860  15.3103  17.7434  30.4614  33.3787

          k = 0.3849 0.3849 0.1925 (   182 PWs)   bands (ev):

    11.3021  12.2318  14.0941  15.3065  15.3967  19.9688  26.1300  32.4161

          k =-0.0000-0.0000 0.1925 (   181 PWs)   bands (ev):

     8.1906  13.6362  13.6362  13.9523  14.5632  15.3603  38.9242  41.4777

          k = 0.3849 0.2887 0.2887 (   183 PWs)   bands (ev):

    11.9332  12.3469  12.9855  15.3066  15.4260  20.3214  28.4549  29.6186

          k = 0.4811 0.3849 0.2887 (   183 PWs)   bands (ev):

    11.8838  12.3642  13.2769  15.3887  15.4528  22.8512  25.4172  28.7152

          k = 0.0000-0.0962 0.2887 (   186 PWs)   bands (ev):

     9.5898  13.3534  13.4437  14.3569  14.7692  15.5984  35.4232  38.7863

          k =-0.0000-0.1925 0.3849 (   184 PWs)   bands (ev):

    10.7722  12.9517  13.3229  14.8330  15.9277  16.2725  30.3057  36.8121

          k = 0.0962-0.0962 0.3849 (   187 PWs)   bands (ev):

    10.8611  12.8044  13.4891  14.3964  15.5195  16.4133  33.0272  34.1878

          k = 0.0000-0.2887 0.4811 (   182 PWs)   bands (ev):

    10.8470  12.6968  13.8020  14.9629  16.7893  18.2750  25.9840  35.7452

          k = 0.0962-0.1925 0.4811 (   182 PWs)   bands (ev):

    11.3992  12.5574  13.2996  14.8344  16.1207  18.6618  28.3899  32.1168

          k =-0.7698-0.2887-0.2887 (   187 PWs)   bands (ev):

    11.2958  12.8990  12.9931  14.9557  16.5027  20.8405  25.2697  31.4880

          k =-0.6736-0.1925-0.2887 (   189 PWs)   bands (ev):

    12.0643  12.0864  12.8899  15.3679  16.0188  22.1032  26.4196  28.1111

          k = 0.3849 0.3849 0.3849 (   180 PWs)   bands (ev):

    12.3661  12.3661  12.8076  15.4233  15.4233  23.5031  27.4488  27.4488

          k = 0.0000 0.0000 0.3849 (   185 PWs)   bands (ev):

    10.6550  13.1333  13.9755  13.9755  14.8125  16.2590  35.7552  36.8542

          k =-0.0000-0.0962 0.4811 (   188 PWs)   bands (ev):

    11.4102  12.3461  13.9275  14.5081  15.7800  17.7777  31.3239  34.4322

          k = 0.0000-0.1925 0.5774 (   185 PWs)   bands (ev):

    11.3191  12.2427  13.7636  14.7327  16.6785  20.6588  26.5708  32.9273

          k = 0.0962-0.0962 0.5774 (   187 PWs)   bands (ev):

    11.5992  11.6882  14.0113  15.1283  16.2445  20.5067  29.2820  30.0195

          k =-0.7698-0.1925-0.1925 (   194 PWs)   bands (ev):

    11.3873  11.6866  13.8866  15.4967  16.4841  23.5243  25.7585  29.0467

          k =-0.0000-0.0000 0.5774 (   196 PWs)   bands (ev):

    11.3639  11.5690  15.0147  15.0147  15.8311  19.8969  31.6650  31.6650

          k = 0.0000-0.0962 0.6736 (   192 PWs)   bands (ev):

    11.0449  11.1562  15.2130  15.5039  16.5552  23.1062  27.6809  29.9460

          k =-0.7698-0.0962-0.0962 (   188 PWs)   bands (ev):

    10.8711  10.8711  15.3484  16.3950  16.3950  26.3388  26.3388  27.4989

          k = 0.0000 0.0000 0.7698 (   188 PWs)   bands (ev):

    10.5952  10.6116  16.3538  16.3538  16.5201  25.7836  28.0365  28.0365

 ------ SPIN DOWN ----------


          k = 0.0000 0.0000 0.0000 (   177 PWs)   bands (ev):

     7.2179  15.5985  15.5985  15.5985  18.0497  18.0498  42.1955  42.1956

          k = 0.0962 0.0962 0.0000 (   189 PWs)   bands (ev):

     7.7921  15.3962  15.5484  15.9575  17.8434  18.0657  40.1048  41.6699

          k = 0.1925 0.1925 0.0000 (   186 PWs)   bands (ev):

     9.3433  14.9089  15.3037  16.9334  17.6281  18.1334  35.7355  39.6472

          k = 0.2887 0.2887 0.0000 (   182 PWs)   bands (ev):

    11.1070  14.3915  15.3817  17.7429  18.1925  18.2580  30.8830  37.3716

          k = 0.3849 0.3849 0.0000 (   182 PWs)   bands (ev):

    11.7884  14.0715  16.7018  17.8970  18.3694  19.1362  27.1355  36.0141

          k = 0.1925 0.0962 0.0962 (   184 PWs)   bands (ev):

     8.8666  15.1453  15.2398  16.6949  17.5699  18.1683  37.7212  39.0754

          k = 0.2887 0.1925 0.0962 (   182 PWs)   bands (ev):

    10.6428  14.6377  14.9206  17.5074  17.9345  18.3545  33.4467  36.5620

          k = 0.3849 0.2887 0.0962 (   182 PWs)   bands (ev):

    11.9421  14.2180  15.3649  17.7405  18.4244  19.4697  28.8687  34.9416

          k = 0.4811 0.3849 0.0962 (   186 PWs)   bands (ev):

    12.1474  14.0687  16.0807  17.8522  18.5737  20.4019  26.4987  34.3318

          k = 0.3849 0.1925 0.1925 (   181 PWs)   bands (ev):

    12.2231  14.2262  14.6528  17.5673  18.3883  19.8005  31.2482  32.1619

          k = 0.4811 0.2887 0.1925 (   182 PWs)   bands (ev):

    12.9165  14.0810  14.8618  17.8251  18.4162  22.0234  27.3856  30.6711

          k = 0.5774 0.2887 0.2887 (   185 PWs)   bands (ev):

    13.5024  14.2316  14.2316  18.1408  18.1408  25.2971  25.2971  28.2403

          k = 0.1925 0.1925 0.1925 (   180 PWs)   bands (ev):

    10.3030  14.6463  14.6463  17.9659  17.9659  17.9946  35.6455  35.6455

          k = 0.2887 0.2887 0.1925 (   179 PWs)   bands (ev):

    12.0371  14.1607  14.4127  17.9772  18.2491  19.6404  31.2755  33.9193

          k = 0.3849 0.3849 0.1925 (   182 PWs)   bands (ev):

    12.6196  13.9014  15.2190  18.0820  18.3933  21.4117  27.2818  32.9337

          k =-0.0000-0.0000 0.1925 (   181 PWs)   bands (ev):

     8.3461  15.5757  15.5757  15.9597  17.3155  18.3147  39.1460  41.6925

          k = 0.3849 0.2887 0.2887 (   183 PWs)   bands (ev):

    13.2320  13.9364  14.2309  18.1529  18.3761  21.8520  29.3393  30.3521

          k = 0.4811 0.3849 0.2887 (   183 PWs)   bands (ev):

    13.3386  13.8924  14.5887  18.2502  18.4003  23.9887  26.5359  29.4796

          k = 0.0000-0.0962 0.2887 (   186 PWs)   bands (ev):

     9.8343  15.2409  15.3965  16.8405  16.8639  18.5227  36.0336  39.0930

          k =-0.0000-0.1925 0.3849 (   184 PWs)   bands (ev):

    11.5299  14.7752  15.0524  17.1899  18.1165  18.8366  31.2131  37.1090

          k = 0.0962-0.0962 0.3849 (   187 PWs)   bands (ev):

    11.3979  14.8125  15.2813  16.6987  17.7659  18.9510  33.8326  34.7732

          k = 0.0000-0.2887 0.4811 (   182 PWs)   bands (ev):

    12.1925  14.4820  15.4672  17.4576  19.0866  19.8569  27.2367  36.0222

          k = 0.0962-0.1925 0.4811 (   182 PWs)   bands (ev):

    12.6218  14.3532  15.0587  17.1543  18.4923  20.4360  29.3849  32.7883

          k =-0.7698-0.2887-0.2887 (   187 PWs)   bands (ev):

    12.8250  14.6851  14.6959  17.3284  18.8287  22.1295  26.5414  32.1472

          k =-0.6736-0.1925-0.2887 (   189 PWs)   bands (ev):

    13.6180  13.8597  14.6431  17.6730  18.3679  23.4251  27.5114  28.9109

          k = 0.3849 0.3849 0.3849 (   180 PWs)   bands (ev):

    13.8512  13.8512  14.0748  18.4157  18.4157  24.6483  28.3250  28.3250

          k = 0.0000 0.0000 0.3849 (   185 PWs)   bands (ev):

    11.0892  15.5218  15.8730  15.8730  16.9022  18.9610  36.4419  37.4697

          k =-0.0000-0.0962 0.4811 (   188 PWs)   bands (ev):

    12.4093  14.4355  15.8157  16.5529  17.9524  19.8148  32.1572  35.0441

          k = 0.0000-0.1925 0.5774 (   185 PWs)   bands (ev):

    12.9416  14.0354  15.6310  16.8759  18.9625  21.9776  27.6434  33.4779

          k = 0.0962-0.0962 0.5774 (   187 PWs)   bands (ev):

    13.0999  13.6714  15.8969  17.1932  18.4872  21.9007  30.1927  30.6845

          k =-0.7698-0.1925-0.1925 (   194 PWs)   bands (ev):

    13.2206  13.4954  15.7090  17.6229  18.7431  24.5798  26.7879  29.7479

          k =-0.0000-0.0000 0.5774 (   196 PWs)   bands (ev):

    12.8414  13.6307  16.9821  16.9821  18.0263  21.2995  32.2278  32.2279

          k = 0.0000-0.0962 0.6736 (   192 PWs)   bands (ev):

    12.8720  13.0306  17.2340  17.5381  18.8252  24.0494  28.4018  30.4111

          k =-0.7698-0.0962-0.0962 (   188 PWs)   bands (ev):

    12.7412  12.7412  17.3593  18.6166  18.6166  27.0232  27.0233  28.0265

          k = 0.0000 0.0000 0.7698 (   188 PWs)   bands (ev):

    12.4609  12.4864  18.5621  18.5621  18.7919  26.2960  28.3455  28.3455

     the Fermi energy is    16.3556 ev

!    total energy              =     -55.78894024 Ry
     estimated scf accuracy    <       0.00000009 Ry
     smearing contrib. (-TS)   =       0.00022081 Ry
     internal energy E=F+TS    =     -55.78916105 Ry

     The total energy is F=E-TS. E is the sum of the following terms:
     one-electron contribution =      10.65736183 Ry
     hartree contribution      =       5.74855278 Ry
     xc contribution           =     -26.54649714 Ry
     ewald contribution        =     -45.64857853 Ry

     total magnetization       =     2.09 Bohr mag/cell
     absolute magnetization    =     2.18 Bohr mag/cell

     convergence has been achieved in  11 iterations

     Forces acting on atoms (cartesian axes, Ry/au):

     atom    1 type  1   force =     0.00000000    0.00000000    0.00000000

     Total force =     0.000000     Total SCF correction =     0.000000


     Computing stress (Cartesian axis) and pressure

          total   stress  (Ry/bohr**3)                   (kbar)     P=      412.76
   0.00280589  -0.00000000  -0.00000000          412.76       -0.00       -0.00
  -0.00000000   0.00280589  -0.00000000           -0.00      412.76       -0.00
  -0.00000000  -0.00000000   0.00280589           -0.00       -0.00      412.76


     BFGS Geometry Optimization
     Energy error            =      3.5E-02 Ry
     Gradient error          =      0.0E+00 Ry/Bohr
     Cell gradient error     =      4.1E+02 kbar

     number of scf cycles    =   1
     number of bfgs steps    =   0

     enthalpy           new  =     -55.7889402405 Ry

     new trust radius        =       0.1143324138 bohr
     new conv_thr            =       0.0000001000 Ry

     new unit-cell volume =     81.39327 a.u.^3 (    12.06124 Ang^3 )
     density =      7.68850 g/cm^3

CELL_PARAMETERS (angstrom)
  -1.444698739   1.444698739   1.444698739
   1.444698739  -1.444698739   1.444698739
   1.444698739   1.444698739  -1.444698739

ATOMIC_POSITIONS (angstrom)
Fe               0.0000000000        0.0000000000        0.0000000000


     Message from routine punch:
     Nothing written, as per user request (disk_io='none')
     NEW-OLD atomic charge density approx. for the potential
     New effective cutoffs (rho, wfc):  259.54   26.19

     Check: negative core charge=   -0.000002
     Generating pointlists ...

     total cpu time spent up to now is        2.0 secs

     Self-consistent Calculation

     iteration #  1     ecut=    30.00 Ry     beta= 0.50
     Davidson diagonalization with overlap
     ethr =  1.00E-06,  avg # of iterations =  6.8

     total cpu time spent up to now is        2.3 secs

     total energy              =     -55.79905356 Ry
     estimated scf accuracy    <       0.00187739 Ry

     total magnetization       =     2.23 Bohr mag/cell
     absolute magnetization    =     2.35 Bohr mag/cell

     iteration #  2     ecut=    30.00 Ry     beta= 0.50
     Davidson diagonalization with overlap
     ethr =  2.35E-05,  avg # of iterations =  1.0

     total cpu time spent up to now is        2.4 secs

     total energy              =     -55.79975009 Ry
     estimated scf accuracy    <       0.00131258 Ry

     total magnetization       =     2.30 Bohr mag/cell
     absolute magnetization    =     2.42 Bohr mag/cell

     iteration #  3     ecut=    30.00 Ry     beta= 0.50
     Davidson diagonalization with overlap
     ethr =  1.64E-05,  avg # of iterations =  1.0

     total cpu time spent up to now is        2.5 secs

     total energy              =     -55.80011648 Ry
     estimated scf accuracy    <       0.00068882 Ry

     total magnetization       =     2.34 Bohr mag/cell
     absolute magnetization    =     2.47 Bohr mag/cell

     iteration #  4     ecut=    30.00 Ry     beta= 0.50
     Davidson diagonalization with overlap
     ethr =  8.61E-06,  avg # of iterations =  1.7

     total cpu time spent up to now is        2.6 secs

     total energy              =     -55.80075543 Ry
     estimated scf accuracy    <       0.00015741 Ry

     total magnetization       =     2.48 Bohr mag/cell
     absolute magnetization    =     2.63 Bohr mag/cell

     iteration #  5     ecut=    30.00 Ry     beta= 0.50
     Davidson diagonalization with overlap
     ethr =  1.97E-06,  avg # of iterations =  2.4

     total cpu time spent up to now is        2.7 secs

     total energy              =     -55.80143374 Ry
     estimated scf accuracy    <       0.00002888 Ry

     total magnetization       =     2.56 Bohr mag/cell
     absolute magnetization    =     2.73 Bohr mag/cell

     iteration #  6     ecut=    30.00 Ry     beta= 0.50
     Davidson diagonalization with overlap
     ethr =  3.61E-07,  avg # of iterations =  1.6

     total cpu time spent up to now is        2.9 secs

     total energy              =     -55.80137780 Ry
     estimated scf accuracy    <       0.00000677 Ry

     total magnetization       =     2.55 Bohr mag/cell
     absolute magnetization    =     2.71 Bohr mag/cell

     iteration #  7     ecut=    30.00 Ry     beta= 0.50
     Davidson diagonalization with overlap
     ethr =  8.47E-08,  avg # of iterations =  2.7

     total cpu time spent up to now is        3.0 secs

     total energy              =     -55.80146264 Ry
     estimated scf accuracy    <       0.00003652 Ry

     total magnetization       =     2.57 Bohr mag/cell
     absolute magnetization    =     2.74 Bohr mag/cell

     iteration #  8     ecut=    30.00 Ry     beta= 0.50
     Davidson diagonalization with overlap
     ethr =  8.47E-08,  avg # of iterations =  1.9

     total cpu time spent up to now is        3.2 secs

     total energy              =     -55.80148051 Ry
     estimated scf accuracy    <       0.00000039 Ry

     total magnetization       =     2.56 Bohr mag/cell
     absolute magnetization    =     2.73 Bohr mag/cell

     iteration #  9     ecut=    30.00 Ry     beta= 0.50
     Davidson diagonalization with overlap
     ethr =  4.93E-09,  avg # of iterations =  3.7

     Magnetic moment per site  (integrated on atomic sphere of radius R)
     atom   1 (R=0.413)  charge=  6.1493  magn=  2.6108

     total cpu time spent up to now is        3.4 secs

     End of self-consistent calculation

 ------ SPIN UP ------------


          k = 0.0000 0.0000 0.0000 (   177 PWs)   bands (ev):

     4.4747  10.1406  10.1406  10.1406  11.3025  11.3025  36.7158  36.7158

          k = 0.0899 0.0899 0.0000 (   189 PWs)   bands (ev):

     4.9600  10.0202  10.1272  10.3871  11.1969  11.3128  33.9511  35.9058

          k = 0.1798 0.1798 0.0000 (   186 PWs)   bands (ev):

     6.2644   9.7239  10.0547  11.0494  11.1223  11.3488  28.9939  33.6717

          k = 0.2698 0.2698 0.0000 (   182 PWs)   bands (ev):

     7.5496   9.4012  10.6090  11.2724  11.4080  11.8855  23.9992  31.6300

          k = 0.3597 0.3597 0.0000 (   182 PWs)   bands (ev):

     7.8087   9.1979  11.3132  11.4579  12.4938  12.6710  20.0478  30.4970

          k = 0.1798 0.0899 0.0899 (   184 PWs)   bands (ev):

     5.8687   9.8829   9.9424  10.9048  11.0648  11.3762  31.3064  32.4321

          k = 0.2698 0.1798 0.0899 (   182 PWs)   bands (ev):

     7.3065   9.5693   9.8680  11.0860  11.4610  11.8509  26.6586  29.9865

          k = 0.3597 0.2698 0.0899 (   182 PWs)   bands (ev):

     8.0189   9.3091  10.5709  11.2790  11.6625  13.2045  21.9897  28.5577

          k = 0.4496 0.3597 0.0899 (   186 PWs)   bands (ev):

     8.0348   9.2153  10.9768  11.3152  11.9873  14.5776  19.3739  28.0362

          k = 0.3597 0.1798 0.1798 (   181 PWs)   bands (ev):

     8.3717   9.3440   9.7973  11.1563  11.5954  13.4400  24.6216  25.3196

          k = 0.4496 0.2698 0.1798 (   182 PWs)   bands (ev):

     8.5922   9.2770  10.0543  11.3279  11.7199  15.8303  20.6390  24.0391

          k = 0.5395 0.2698 0.2698 (   185 PWs)   bands (ev):

     8.9139   9.5013   9.5013  11.5499  11.5499  19.0041  19.0041  21.3513

          k = 0.1798 0.1798 0.1798 (   180 PWs)   bands (ev):

     7.0700   9.5825   9.5825  11.2791  11.2791  11.8710  29.1487  29.1487

          k = 0.2698 0.2698 0.1798 (   179 PWs)   bands (ev):

     8.3080   9.2933   9.6452  11.3183  11.4126  13.2912  24.5816  27.5546

          k = 0.3597 0.3597 0.1798 (   182 PWs)   bands (ev):

     8.4128   9.1394  10.5516  11.3985  11.4715  15.3034  20.4403  26.7039

          k =-0.0000-0.0000 0.1798 (   181 PWs)   bands (ev):

     5.4287  10.1591  10.1591  10.3882  10.9075  11.4568  33.2237  34.9985

          k = 0.3597 0.2698 0.2698 (   183 PWs)   bands (ev):

     8.8896   9.2359   9.6791  11.4041  11.4905  15.5084  22.8945  23.6282

          k = 0.4496 0.3597 0.2698 (   183 PWs)   bands (ev):

     8.8665   9.2397   9.9265  11.4610  11.5092  17.8882  19.8965  22.8787

          k = 0.0000-0.0899 0.2698 (   186 PWs)   bands (ev):

     6.6729   9.9584  10.0609  10.7345  10.9911  11.6215  29.3191  32.6355

          k =-0.0000-0.1798 0.3597 (   184 PWs)   bands (ev):

     7.8711   9.6683   9.9978  11.0628  11.8387  12.1588  24.3326  30.9661

          k = 0.0899-0.0899 0.3597 (   187 PWs)   bands (ev):

     7.8696   9.6230  10.0648  10.7463  11.5443  12.2433  27.0590  27.7806

          k = 0.0000-0.2698 0.4496 (   182 PWs)   bands (ev):

     8.0771   9.4824  10.3661  11.1530  12.4622  13.9990  20.2290  30.0522

          k = 0.0899-0.1798 0.4496 (   182 PWs)   bands (ev):

     8.4813   9.4246   9.9470  11.0603  11.9849  14.1417  22.5769  26.0194

          k =-0.7193-0.2698-0.2698 (   187 PWs)   bands (ev):

     8.4549   9.6369   9.7652  11.1464  12.2649  16.1901  19.5875  25.4716

          k =-0.6294-0.1798-0.2698 (   189 PWs)   bands (ev):

     9.0460   9.0758   9.6456  11.4436  11.9135  17.1478  20.9854  22.1499

          k = 0.3597 0.3597 0.3597 (   180 PWs)   bands (ev):

     9.2356   9.2356   9.5556  11.4887  11.4887  18.3708  21.9974  21.9974

          k = 0.0000 0.0000 0.3597 (   185 PWs)   bands (ev):

     7.6620   9.8958  10.4199  10.4199  11.0264  12.1077  30.0276  30.1471

          k =-0.0000-0.0899 0.4496 (   188 PWs)   bands (ev):

     8.4520   9.3113  10.3886  10.8207  11.7342  13.3712  25.2822  27.9696

          k = 0.0000-0.1798 0.5395 (   185 PWs)   bands (ev):

     8.4998   9.2125  10.2700  10.9848  12.3829  15.9494  20.8797  26.6768

          k = 0.0899-0.0899 0.5395 (   187 PWs)   bands (ev):

     8.6936   8.8261  10.4542  11.2710  12.0724  15.7434  23.5202  24.0058

          k =-0.7193-0.1798-0.1798 (   194 PWs)   bands (ev):

     8.5859   8.8051  10.3605  11.5382  12.2473  18.5022  20.2042  23.2135

          k =-0.0000-0.0000 0.5395 (   196 PWs)   bands (ev):

     8.5140   8.7509  11.1886  11.1886  11.7716  15.2175  25.5814  25.5814

          k = 0.0000-0.0899 0.6294 (   192 PWs)   bands (ev):

     8.3422   8.4182  11.3320  11.5455  12.2946  18.0845  22.0636  24.1468

          k =-0.7193-0.0899-0.0899 (   188 PWs)   bands (ev):

     8.2158   8.2158  11.4316  12.1829  12.1829  21.0136  21.0136  21.8721

          k = 0.0000 0.0000 0.7193 (   188 PWs)   bands (ev):

     8.0189   8.0226  12.1535  12.1535  12.2687  20.5432  22.5818  22.5818

 ------ SPIN DOWN ----------


          k = 0.0000 0.0000 0.0000 (   177 PWs)   bands (ev):

     4.5681  12.7185  12.7185  12.7185  14.5808  14.5808  36.3854  36.3854

          k = 0.0899 0.0899 0.0000 (   189 PWs)   bands (ev):

     5.0574  12.5614  12.6741  12.9963  14.4266  14.5939  34.0765  35.7401

          k = 0.1798 0.1798 0.0000 (   186 PWs)   bands (ev):

     6.4231  12.1797  12.4342  13.7513  14.2653  14.6452  29.6156  33.6703

          k = 0.2698 0.2698 0.0000 (   182 PWs)   bands (ev):

     8.2165  11.7706  12.2513  14.3516  14.7263  14.7374  25.0085  31.6078

          k = 0.3597 0.3597 0.0000 (   182 PWs)   bands (ev):

     9.3008  11.5160  12.9303  14.4594  14.8191  15.4565  21.5751  30.4269

          k = 0.1798 0.0899 0.0899 (   184 PWs)   bands (ev):

     5.9903  12.3582  12.4256  13.5595  14.2213  14.6693  31.6882  32.8031

          k = 0.2698 0.1798 0.0899 (   182 PWs)   bands (ev):

     7.6303  11.9509  12.0962  14.1762  14.5061  14.7983  27.4398  30.4469

          k = 0.3597 0.2698 0.0899 (   182 PWs)   bands (ev):

     9.2085  11.6152  12.1412  14.3496  14.8584  15.6362  23.1735  29.0094

          k = 0.4496 0.3597 0.0899 (   186 PWs)   bands (ev):

     9.6762  11.4988  12.5902  14.4275  14.9657  16.3276  21.0132  28.4717

          k = 0.3597 0.1798 0.1798 (   181 PWs)   bands (ev):

     9.2374  11.5437  11.8588  14.2239  14.8355  15.8599  25.5352  26.0703

          k = 0.4496 0.2698 0.1798 (   182 PWs)   bands (ev):

    10.2738  11.4174  11.8120  14.4165  14.8588  17.5678  21.9051  24.8345

          k = 0.5395 0.2698 0.2698 (   185 PWs)   bands (ev):

    10.9511  11.3706  11.3706  14.6584  14.6584  20.2973  20.2973  22.4115

          k = 0.1798 0.1798 0.1798 (   180 PWs)   bands (ev):

     7.2742  11.9484  11.9484  14.5200  14.5200  14.5371  29.6685  29.6686

          k = 0.2698 0.2698 0.1798 (   179 PWs)   bands (ev):

     8.9952  11.5522  11.6395  14.5285  14.7310  15.7656  25.4592  28.1048

          k = 0.3597 0.3597 0.1798 (   182 PWs)   bands (ev):

    10.0018  11.3382  11.9904  14.6050  14.8369  17.1172  21.7688  27.2448

          k =-0.0000-0.0000 0.1798 (   181 PWs)   bands (ev):

     5.5336  12.6930  12.6930  13.0032  14.0276  14.7766  33.3000  35.3127

          k = 0.3597 0.2698 0.2698 (   183 PWs)   bands (ev):

    10.3691  11.2698  11.4267  14.6617  14.8242  17.4472  23.8611  24.4496

          k = 0.4496 0.3597 0.2698 (   183 PWs)   bands (ev):

    10.7202  11.2316  11.5851  14.7334  14.8436  19.2299  21.2071  23.7389

          k = 0.0000-0.0899 0.2698 (   186 PWs)   bands (ev):

     6.8567  12.4309  12.5199  13.6826  13.6847  14.9189  29.9325  32.8776

          k =-0.0000-0.1798 0.3597 (   184 PWs)   bands (ev):

     8.5855  12.0637  12.0935  13.9250  14.6689  15.1081  25.3098  31.1793

          k = 0.0899-0.0899 0.3597 (   187 PWs)   bands (ev):

     8.3487  12.0505  12.4249  13.5592  14.3915  15.1880  27.8655  28.4553

          k = 0.0000-0.2698 0.4496 (   182 PWs)   bands (ev):

     9.6481  11.8307  12.1992  14.1242  15.4188  15.7995  21.6785  30.2415

          k = 0.0899-0.1798 0.4496 (   182 PWs)   bands (ev):

     9.7979  11.5789  12.2069  13.9022  14.9316  16.2631  23.6599  26.7561

          k =-0.7193-0.2698-0.2698 (   187 PWs)   bands (ev):

    10.2722  11.6671  11.9626  14.0275  15.1951  17.6156  21.0791  26.1902

          k =-0.6294-0.1798-0.2698 (   189 PWs)   bands (ev):

    10.8475  11.1773  11.8547  14.3053  14.8331  18.6523  22.1562  23.0875

          k = 0.3597 0.3597 0.3597 (   180 PWs)   bands (ev):

    11.1737  11.1737  11.1809  14.8538  14.8538  19.7456  22.9849  22.9849

          k = 0.0000 0.0000 0.3597 (   185 PWs)   bands (ev):

     8.0224  12.6413  12.9029  12.9029  13.7412  15.1948  30.5730  30.8685

          k =-0.0000-0.0899 0.4496 (   188 PWs)   bands (ev):

     9.4409  11.7453  12.8596  13.4241  14.5464  15.7408  26.1614  28.6756

          k = 0.0000-0.1798 0.5395 (   185 PWs)   bands (ev):

    10.3305  11.2603  12.7159  13.6613  15.3242  17.4200  22.0839  27.3089

          k = 0.0899-0.0899 0.5395 (   187 PWs)   bands (ev):

    10.3400  11.1236  12.9006  13.9262  14.9432  17.3351  24.4717  24.7653

          k =-0.7193-0.1798-0.1798 (   194 PWs)   bands (ev):

    10.6968  10.8589  12.7354  14.2552  15.1422  19.6229  21.3639  23.9976

          k =-0.0000-0.0000 0.5395 (   196 PWs)   bands (ev):

    10.1097  11.1337  13.7541  13.7541  14.6110  16.8114  26.2235  26.2235

          k = 0.0000-0.0899 0.6294 (   192 PWs)   bands (ev):

    10.3824  10.6126  13.9621  14.1765  15.2197  19.1088  22.8504  24.6706

          k =-0.7193-0.0899-0.0899 (   188 PWs)   bands (ev):

    10.3655  10.3655  14.0451  15.0473  15.0473  21.7315  21.7315  22.4841

          k = 0.0000 0.0000 0.7193 (   188 PWs)   bands (ev):

    10.1492  10.2028  15.0058  15.0058  15.1958  21.0851  22.9163  22.9163

     the Fermi energy is    12.5912 ev

!    total energy              =     -55.80148107 Ry
     estimated scf accuracy    <          1.9E-09 Ry
     smearing contrib. (-TS)   =       0.00023068 Ry
     internal energy E=F+TS    =     -55.80171175 Ry

     The total energy is F=E-TS. E is the sum of the following terms:
     one-electron contribution =       6.46641942 Ry
     hartree contribution      =       6.84273647 Ry
     xc contribution           =     -26.45451351 Ry
     ewald contribution        =     -42.65635412 Ry

     total magnetization       =     2.56 Bohr mag/cell
     absolute magnetization    =     2.72 Bohr mag/cell

     convergence has been achieved in   9 iterations

     Forces acting on atoms (cartesian axes, Ry/au):

     atom    1 type  1   force =     0.00000000    0.00000000    0.00000000

     Total force =     0.000000     Total SCF correction =     0.000000


     Computing stress (Cartesian axis) and pressure

          total   stress  (Ry/bohr**3)                   (kbar)     P=      -30.32
  -0.00020609   0.00000000   0.00000000          -30.32        0.00        0.00
   0.00000000  -0.00020609   0.00000000            0.00      -30.32        0.00
   0.00000000   0.00000000  -0.00020609            0.00        0.00      -30.32

     Energy error            =      1.3E-02 Ry
     Gradient error          =      0.0E+00 Ry/Bohr
     Cell gradient error     =      3.0E+01 kbar

     number of scf cycles    =   2
     number of bfgs steps    =   1

     enthalpy           old  =     -55.7889402405 Ry
     enthalpy           new  =     -55.8014810711 Ry

     CASE: enthalpy          _new < enthalpy          _old

     new trust radius        =       0.0091768102 bohr
     new conv_thr            =       0.0000000010 Ry

     new unit-cell volume =     80.15770 a.u.^3 (    11.87815 Ang^3 )
     density =      7.80701 g/cm^3

CELL_PARAMETERS (angstrom)
  -1.437351151   1.437351151   1.437351151
   1.437351151  -1.437351151   1.437351151
   1.437351151   1.437351151  -1.437351151

ATOMIC_POSITIONS (angstrom)
Fe               0.0000000000        0.0000000000        0.0000000000


     Message from routine punch:
     Nothing written, as per user request (disk_io='none')
     NEW-OLD atomic charge density approx. for the potential
     New effective cutoffs (rho, wfc):  262.20   26.46

     Check: negative core charge=   -0.000002
     Generating pointlists ...

     total cpu time spent up to now is        3.6 secs

     Self-consistent Calculation

     iteration #  1     ecut=    30.00 Ry     beta= 0.50
     Davidson diagonalization with overlap
     ethr =  1.00E-06,  avg # of iterations =  3.7

     total cpu time spent up to now is        3.8 secs

     total energy              =     -55.80163545 Ry
     estimated scf accuracy    <       0.00001601 Ry

     total magnetization       =     2.54 Bohr mag/cell
     absolute magnetization    =     2.71 Bohr mag/cell

     iteration #  2     ecut=    30.00 Ry     beta= 0.50
     Davidson diagonalization with overlap
     ethr =  2.00E-07,  avg # of iterations =  1.0

     total cpu time spent up to now is        3.9 secs

     total energy              =     -55.80164189 Ry
     estimated scf accuracy    <       0.00000848 Ry

     total magnetization       =     2.54 Bohr mag/cell
     absolute magnetization    =     2.70 Bohr mag/cell

     iteration #  3     ecut=    30.00 Ry     beta= 0.50
     Davidson diagonalization with overlap
     ethr =  1.06E-07,  avg # of iterations =  1.4

     total cpu time spent up to now is        4.0 secs

     total energy              =     -55.80164501 Ry
     estimated scf accuracy    <       0.00000281 Ry

     total magnetization       =     2.54 Bohr mag/cell
     absolute magnetization    =     2.70 Bohr mag/cell

     iteration #  4     ecut=    30.00 Ry     beta= 0.50
     Davidson diagonalization with overlap
     ethr =  3.51E-08,  avg # of iterations =  1.6

     total cpu time spent up to now is        4.1 secs

     total energy              =     -55.80164634 Ry
     estimated scf accuracy    <       0.00000028 Ry

     total magnetization       =     2.53 Bohr mag/cell
     absolute magnetization    =     2.69 Bohr mag/cell

     iteration #  5     ecut=    30.00 Ry     beta= 0.50
     Davidson diagonalization with overlap
     ethr =  3.52E-09,  avg # of iterations =  2.6

     total cpu time spent up to now is        4.3 secs

     total energy              =     -55.80164744 Ry
     estimated scf accuracy    <       0.00000003 Ry

     total magnetization       =     2.53 Bohr mag/cell
     absolute magnetization    =     2.69 Bohr mag/cell

     iteration #  6     ecut=    30.00 Ry     beta= 0.50
     Davidson diagonalization with overlap
     ethr =  3.66E-10,  avg # of iterations =  3.2

     total cpu time spent up to now is        4.4 secs

     total energy              =     -55.80164749 Ry
     estimated scf accuracy    <          4.0E-09 Ry

     total magnetization       =     2.53 Bohr mag/cell
     absolute magnetization    =     2.69 Bohr mag/cell

     iteration #  7     ecut=    30.00 Ry     beta= 0.50
     Davidson diagonalization with overlap
     ethr =  5.05E-11,  avg # of iterations =  4.3

     Magnetic moment per site  (integrated on atomic sphere of radius R)
     atom   1 (R=0.413)  charge=  6.1621  magn=  2.5799

     total cpu time spent up to now is        4.6 secs

     End of self-consistent calculation

 ------ SPIN UP ------------


          k = 0.0000 0.0000 0.0000 (   177 PWs)   bands (ev):

     4.6445  10.3840  10.3840  10.3840  11.5695  11.5695  37.1121  37.1121

          k = 0.0904 0.0904 0.0000 (   189 PWs)   bands (ev):

     5.1355  10.2602  10.3696  10.6362  11.4609  11.5801  34.3711  36.3144

          k = 0.1808 0.1808 0.0000 (   186 PWs)   bands (ev):

     6.4530   9.9561  10.2923  11.3142  11.3855  11.6173  29.4202  34.0835

          k = 0.2711 0.2711 0.0000 (   182 PWs)   bands (ev):

     7.7429   9.6251  10.8512  11.5404  11.6786  12.1707  24.4074  32.0254

          k = 0.3615 0.3615 0.0000 (   182 PWs)   bands (ev):

     7.9975   9.4168  11.5826  11.7303  12.7943  12.9252  20.4420  30.8798

          k = 0.1808 0.0904 0.0904 (   184 PWs)   bands (ev):

     6.0541  10.1189  10.1790  11.1660  11.3256  11.6455  31.7241  32.8761

          k = 0.2711 0.1808 0.0904 (   182 PWs)   bands (ev):

     7.5033   9.7967  10.1001  11.3487  11.7335  12.1324  27.0758  30.4165

          k = 0.3615 0.2711 0.0904 (   182 PWs)   bands (ev):

     8.2140   9.5303  10.8137  11.5474  11.9389  13.5026  22.3870  28.9759

          k = 0.4519 0.3615 0.0904 (   186 PWs)   bands (ev):

     8.2270   9.4343  11.2307  11.5849  12.2695  14.8711  19.7668  28.4498

          k = 0.3615 0.1808 0.1808 (   181 PWs)   bands (ev):

     8.5765   9.5625  10.0284  11.4212  11.8718  13.7456  25.0155  25.7460

          k = 0.4519 0.2711 0.1808 (   182 PWs)   bands (ev):

     8.7965   9.4955  10.2869  11.5976  11.9992  16.1531  21.0231  24.4448

          k = 0.5423 0.2711 0.2711 (   185 PWs)   bands (ev):

     9.1264   9.7219   9.7219  11.8253  11.8253  19.3527  19.3527  21.7627

          k = 0.1808 0.1808 0.1808 (   180 PWs)   bands (ev):

     7.2673   9.8098   9.8098  11.5463  11.5463  12.1534  29.5615  29.5615

          k = 0.2711 0.2711 0.1808 (   179 PWs)   bands (ev):

     8.5133   9.5137   9.8721  11.5874  11.6838  13.5969  24.9858  27.9567

          k = 0.3615 0.3615 0.1808 (   182 PWs)   bands (ev):

     8.6135   9.3563  10.7951  11.6702  11.7444  15.6202  20.8285  27.0982

          k = 0.0000-0.0000 0.1808 (   181 PWs)   bands (ev):

     5.6095  10.4022  10.4022  10.6372  11.1630  11.7283  33.6199  35.4573

          k = 0.3615 0.2711 0.2711 (   183 PWs)   bands (ev):

     9.1013   9.4531   9.9065  11.6755  11.7640  15.8363  23.2743  24.0413

          k = 0.4519 0.3615 0.2711 (   183 PWs)   bands (ev):

     9.0769   9.4574  10.1579  11.7340  11.7833  18.2246  20.2745  23.2783

          k = 0.0000-0.0904 0.2711 (   186 PWs)   bands (ev):

     6.8655  10.1961  10.2977  10.9874  11.2543  11.8974  29.7443  33.0635

          k =-0.0000-0.1808 0.3615 (   184 PWs)   bands (ev):

     8.0682   9.8985  10.2285  11.3252  12.1226  12.4414  24.7420  31.3745

          k = 0.0904-0.0904 0.3615 (   187 PWs)   bands (ev):

     8.0703   9.8465  10.3037  11.0010  11.8205  12.5302  27.4700  28.2235

          k = 0.0000-0.2711 0.4519 (   182 PWs)   bands (ev):

     8.2699   9.7079  10.6043  11.4181  12.7619  14.2875  20.6212  30.4500

          k = 0.0904-0.1808 0.4519 (   182 PWs)   bands (ev):

     8.6831   9.6435  10.1807  11.3231  12.2715  14.4491  22.9739  26.4384

          k =-0.7230-0.2711-0.2711 (   187 PWs)   bands (ev):

     8.6534   9.8654   9.9895  11.4115  12.5585  16.5034  19.9752  25.8846

          k =-0.6326-0.1808-0.2711 (   189 PWs)   bands (ev):

     9.2577   9.2850   9.8722  11.7163  12.1982  17.4836  21.3544  22.5577

          k = 0.3615 0.3615 0.3615 (   180 PWs)   bands (ev):

     9.4536   9.4536   9.7802  11.7622  11.7622  18.7201  22.3693  22.3693

          k = 0.0000 0.0000 0.3615 (   185 PWs)   bands (ev):

     7.8614  10.1237  10.6681  10.6681  11.2903  12.3936  30.4222  30.6092

          k =-0.0000-0.0904 0.4519 (   188 PWs)   bands (ev):

     8.6540   9.5248  10.6357  11.0776  12.0153  13.6712  25.6964  28.4122

          k = 0.0000-0.1808 0.5423 (   185 PWs)   bands (ev):

     8.6972   9.4238  10.5140  11.2456  12.6805  16.2680  21.2670  27.1039

          k = 0.0904-0.0904 0.5423 (   187 PWs)   bands (ev):

     8.8952   9.0279  10.7023  11.5392  12.3617  16.0660  23.9125  24.4170

          k =-0.7230-0.1808-0.1808 (   194 PWs)   bands (ev):

     8.7829   9.0069  10.6065  11.8132  12.5409  18.8415  20.5827  23.6112

          k = 0.0000-0.0000 0.5423 (   196 PWs)   bands (ev):

     8.7116   8.9503  11.4547  11.4547  12.0537  15.5343  25.9964  25.9964

          k = 0.0000-0.0904 0.6326 (   192 PWs)   bands (ev):

     8.5329   8.6107  11.6020  11.8204  12.5899  18.4245  22.4456  24.5416

          k =-0.7230-0.0904-0.0904 (   188 PWs)   bands (ev):

     8.4033   8.4033  11.7039  12.4749  12.4749  21.3746  21.3746  22.2561

          k = 0.0000 0.0000 0.7230 (   188 PWs)   bands (ev):

     8.2015   8.2057  12.4448  12.4448  12.5634  20.8988  22.9525  22.9525

 ------ SPIN DOWN ----------


          k = 0.0000 0.0000 0.0000 (   177 PWs)   bands (ev):

     4.7462  12.9233  12.9233  12.9233  14.8266  14.8266  36.7984  36.7984

          k = 0.0904 0.0904 0.0000 (   189 PWs)   bands (ev):

     5.2413  12.7631  12.8784  13.2065  14.6690  14.8399  34.5044  36.1620

          k = 0.1808 0.1808 0.0000 (   186 PWs)   bands (ev):

     6.6206  12.3743  12.6373  13.9762  14.5038  14.8923  30.0459  34.0943

          k = 0.2711 0.2711 0.0000 (   182 PWs)   bands (ev):

     8.4177  11.9578  12.4666  14.5918  14.9703  14.9868  25.4174  32.0158

          k = 0.3615 0.3615 0.0000 (   182 PWs)   bands (ev):

     9.4777  11.6988  13.1865  14.7025  15.0705  15.7150  21.9600  30.8222

          k = 0.1808 0.0904 0.0904 (   184 PWs)   bands (ev):

     6.1842  12.5566  12.6258  13.7812  14.4591  14.9171  32.1138  33.2481

          k = 0.2711 0.1808 0.0904 (   182 PWs)   bands (ev):

     7.8360  12.1425  12.2953  14.4125  14.7472  15.0496  27.8602  30.8787

          k = 0.3615 0.2711 0.0904 (   182 PWs)   bands (ev):

     9.4022  11.8011  12.3623  14.5897  15.1106  15.9032  23.5688  29.4284

          k = 0.4519 0.3615 0.0904 (   186 PWs)   bands (ev):

     9.8514  11.6823  12.8317  14.6699  15.2202  16.6100  21.3928  28.8858

          k = 0.3615 0.1808 0.1808 (   181 PWs)   bands (ev):

     9.4454  11.7341  12.0547  14.4610  15.0867  16.1337  25.9331  26.4958

          k = 0.4519 0.2711 0.1808 (   182 PWs)   bands (ev):

    10.4617  11.6074  12.0228  14.6578  15.1101  17.8760  22.2856  25.2403

          k = 0.5423 0.2711 0.2711 (   185 PWs)   bands (ev):

    11.1328  11.5712  11.5712  14.9046  14.9046  20.6433  20.6433  22.8159

          k = 0.1808 0.1808 0.1808 (   180 PWs)   bands (ev):

     7.4795  12.1406  12.1406  14.7643  14.7643  14.7797  30.0879  30.0879

          k = 0.2711 0.2711 0.1808 (   179 PWs)   bands (ev):

     9.2057  11.7381  11.8340  14.7728  14.9801  16.0352  25.8652  28.5120

          k = 0.3615 0.3615 0.1808 (   182 PWs)   bands (ev):

    10.1874  11.5208  12.2133  14.8511  15.0886  17.4146  22.1512  27.6432

          k = 0.0000-0.0000 0.1808 (   181 PWs)   bands (ev):

     5.7228  12.8978  12.8978  13.2132  14.2614  15.0270  33.7130  35.7678

          k = 0.3615 0.2711 0.2711 (   183 PWs)   bands (ev):

    10.5727  11.4583  11.6203  14.9089  15.0756  17.7522  24.2419  24.8624

          k = 0.4519 0.3615 0.2711 (   183 PWs)   bands (ev):

    10.9059  11.4190  11.7944  14.9823  15.0953  19.5593  21.5778  24.1379

          k = 0.0000-0.0904 0.2711 (   186 PWs)   bands (ev):

     7.0583  12.6308  12.7239  13.9060  13.9108  15.1734  30.3624  33.3159

          k =-0.0000-0.1808 0.3615 (   184 PWs)   bands (ev):

     8.7902  12.2569  12.3000  14.1561  14.9118  15.3698  25.7208  31.5982

          k = 0.0904-0.0904 0.3615 (   187 PWs)   bands (ev):

     8.5579  12.2471  12.6271  13.7822  14.6294  15.4517  28.2827  28.8975

          k = 0.0000-0.2711 0.4519 (   182 PWs)   bands (ev):

     9.8290  12.0198  12.4263  14.3602  15.6764  16.0806  22.0633  30.6500

          k = 0.0904-0.1808 0.4519 (   182 PWs)   bands (ev):

     9.9972  11.7751  12.4076  14.1325  15.1826  16.5519  24.0574  27.1766

          k =-0.7230-0.2711-0.2711 (   187 PWs)   bands (ev):

    10.4534  11.8794  12.1563  14.2612  15.4506  17.9273  21.4573  26.6051

          k =-0.6326-0.1808-0.2711 (   189 PWs)   bands (ev):

    11.0433  11.3674  12.0518  14.5431  15.0821  18.9821  22.5270  23.4914

          k = 0.3615 0.3615 0.3615 (   180 PWs)   bands (ev):

    11.3625  11.3625  11.3830  15.1059  15.1059  20.0854  23.3559  23.3559

          k = 0.0000 0.0000 0.3615 (   185 PWs)   bands (ev):

     8.2315  12.8473  13.1132  13.1132  13.9650  15.4590  30.9850  31.3296

          k =-0.0000-0.0904 0.4519 (   188 PWs)   bands (ev):

     9.6473  11.9373  13.0690  13.6453  14.7865  16.0235  26.5788  29.1183

          k = 0.0000-0.1808 0.5423 (   185 PWs)   bands (ev):

    10.5167  11.4556  12.9226  13.8887  15.5798  17.7344  22.4688  27.7370

          k = 0.0904-0.0904 0.5423 (   187 PWs)   bands (ev):

    10.5344  11.3060  13.1127  14.1566  15.1926  17.6501  24.8683  25.1762

          k =-0.7230-0.1808-0.1808 (   194 PWs)   bands (ev):

    10.8769  11.0460  12.9458  14.4925  15.3953  19.9650  21.7395  24.3959

          k = 0.0000-0.0000 0.5423 (   196 PWs)   bands (ev):

    10.3022  11.3132  13.9816  13.9816  14.8518  17.1210  26.6397  26.6397

          k = 0.0000-0.0904 0.6326 (   192 PWs)   bands (ev):

    10.5603  10.7859  14.1928  14.4131  15.4732  19.4496  23.2345  25.0679

          k =-0.7230-0.0904-0.0904 (   188 PWs)   bands (ev):

    10.5360  10.5360  14.2786  15.2982  15.2982  22.0969  22.0969  22.8680

          k = 0.0000 0.0000 0.7230 (   188 PWs)   bands (ev):

    10.3155  10.3675  15.2558  15.2558  15.4487  21.4449  23.2915  23.2915

     the Fermi energy is    12.8217 ev

!    total energy              =     -55.80164751 Ry
     estimated scf accuracy    <          1.1E-10 Ry
     smearing contrib. (-TS)   =       0.00014267 Ry
     internal energy E=F+TS    =     -55.80179017 Ry

     The total energy is F=E-TS. E is the sum of the following terms:
     one-electron contribution =       6.77431023 Ry
     hartree contribution      =       6.75878615 Ry
     xc contribution           =     -26.46047763 Ry
     ewald contribution        =     -42.87440893 Ry

     total magnetization       =     2.53 Bohr mag/cell
     absolute magnetization    =     2.69 Bohr mag/cell

     convergence has been achieved in   7 iterations

     Forces acting on atoms (cartesian axes, Ry/au):

     atom    1 type  1   force =     0.00000000    0.00000000    0.00000000

     Total force =     0.000000     Total SCF correction =     0.000000


     Computing stress (Cartesian axis) and pressure

          total   stress  (Ry/bohr**3)                   (kbar)     P=       -9.12
  -0.00006203  -0.00000000  -0.00000000           -9.12       -0.00       -0.00
  -0.00000000  -0.00006203  -0.00000000           -0.00       -9.12       -0.00
  -0.00000000  -0.00000000  -0.00006203           -0.00       -0.00       -9.12

     Energy error            =      1.7E-04 Ry
     Gradient error          =      0.0E+00 Ry/Bohr
     Cell gradient error     =      9.1E+00 kbar

     number of scf cycles    =   3
     number of bfgs steps    =   2

     enthalpy           old  =     -55.8014810711 Ry
     enthalpy           new  =     -55.8016475063 Ry

     CASE: enthalpy          _new < enthalpy          _old

     new trust radius        =       0.0038840931 bohr
     new conv_thr            =       0.0000000010 Ry

     new unit-cell volume =     79.63721 a.u.^3 (    11.80102 Ang^3 )
     density =      7.85804 g/cm^3

CELL_PARAMETERS (angstrom)
  -1.434233339   1.434233339   1.434233339
   1.434233339  -1.434233339   1.434233339
   1.434233339   1.434233339  -1.434233339

ATOMIC_POSITIONS (angstrom)
Fe               0.0000000000        0.0000000000        0.0000000000


     Message from routine punch:
     Nothing written, as per user request (disk_io='none')
     NEW-OLD atomic charge density approx. for the potential
     New effective cutoffs (rho, wfc):  263.34   26.57

     Check: negative core charge=   -0.000002
     Generating pointlists ...

     total cpu time spent up to now is        4.8 secs

     Self-consistent Calculation

     iteration #  1     ecut=    30.00 Ry     beta= 0.50
     Davidson diagonalization with overlap
     ethr =  1.00E-06,  avg # of iterations =  3.1

     Threshold (ethr) on eigenvalues was too large:
     Diagonalizing with lowered threshold

     Davidson diagonalization with overlap
     ethr =  4.88E-08,  avg # of iterations =  1.6

     total cpu time spent up to now is        5.1 secs

     total energy              =     -55.80166213 Ry
     estimated scf accuracy    <       0.00000391 Ry

     total magnetization       =     2.52 Bohr mag/cell
     absolute magnetization    =     2.68 Bohr mag/cell

     iteration #  2     ecut=    30.00 Ry     beta= 0.50
     Davidson diagonalization with overlap
     ethr =  4.88E-08,  avg # of iterations =  1.0

     total cpu time spent up to now is        5.3 secs

     total energy              =     -55.80166360 Ry
     estimated scf accuracy    <       0.00000216 Ry

     total magnetization       =     2.52 Bohr mag/cell
     absolute magnetization    =     2.68 Bohr mag/cell

     iteration #  3     ecut=    30.00 Ry     beta= 0.50
     Davidson diagonalization with overlap
     ethr =  2.70E-08,  avg # of iterations =  1.5

     total cpu time spent up to now is        5.4 secs

     total energy              =     -55.80166538 Ry
     estimated scf accuracy    <       0.00000039 Ry

     total magnetization       =     2.52 Bohr mag/cell
     absolute magnetization    =     2.67 Bohr mag/cell

     iteration #  4     ecut=    30.00 Ry     beta= 0.50
     Davidson diagonalization with overlap
     ethr =  4.88E-09,  avg # of iterations =  1.3

     total cpu time spent up to now is        5.6 secs

     total energy              =     -55.80166541 Ry
     estimated scf accuracy    <       0.00000009 Ry

     total magnetization       =     2.51 Bohr mag/cell
     absolute magnetization    =     2.67 Bohr mag/cell

     iteration #  5     ecut=    30.00 Ry     beta= 0.50
     Davidson diagonalization with overlap
     ethr =  1.18E-09,  avg # of iterations =  2.2

     total cpu time spent up to now is        5.7 secs

     total energy              =     -55.80166579 Ry
     estimated scf accuracy    <          6.1E-09 Ry

     total magnetization       =     2.51 Bohr mag/cell
     absolute magnetization    =     2.67 Bohr mag/cell

     iteration #  6     ecut=    30.00 Ry     beta= 0.50
     Davidson diagonalization with overlap
     ethr =  7.62E-11,  avg # of iterations =  3.0

     total cpu time spent up to now is        5.8 secs

     total energy              =     -55.80166580 Ry
     estimated scf accuracy    <          6.3E-09 Ry

     total magnetization       =     2.51 Bohr mag/cell
     absolute magnetization    =     2.67 Bohr mag/cell

     iteration #  7     ecut=    30.00 Ry     beta= 0.50
     Davidson diagonalization with overlap
     ethr =  7.62E-11,  avg # of iterations =  1.5

     Magnetic moment per site  (integrated on atomic sphere of radius R)
     atom   1 (R=0.413)  charge=  6.1678  magn=  2.5607

     total cpu time spent up to now is        5.9 secs

     End of self-consistent calculation

 ------ SPIN UP ------------


          k = 0.0000 0.0000 0.0000 (   177 PWs)   bands (ev):

     4.7183  10.4905  10.4905  10.4905  11.6842  11.6842  37.2825  37.2825

          k = 0.0906 0.0906 0.0000 (   189 PWs)   bands (ev):

     5.2119  10.3653  10.4757  10.7452  11.5744  11.6949  34.5516  36.4899

          k = 0.1811 0.1811 0.0000 (   186 PWs)   bands (ev):

     6.5350  10.0577  10.3959  11.4300  11.4991  11.7327  29.6039  34.2603

          k = 0.2717 0.2717 0.0000 (   182 PWs)   bands (ev):

     7.8270   9.7232  10.9561  11.6565  11.7950  12.2953  24.5837  32.1952

          k = 0.3623 0.3623 0.0000 (   182 PWs)   bands (ev):

     8.0795   9.5126  11.6990  11.8475  12.9256  13.0355  20.6127  31.0442

          k = 0.1811 0.0906 0.0906 (   184 PWs)   bands (ev):

     6.1347  10.2222  10.2824  11.2802  11.4379  11.7613  31.9038  33.0670

          k = 0.2717 0.1811 0.0906 (   182 PWs)   bands (ev):

     7.5889   9.8961  10.2012  11.4622  11.8508  12.2552  27.2558  30.6016

          k = 0.3623 0.2717 0.0906 (   182 PWs)   bands (ev):

     8.2989   9.6270  10.9188  11.6636  12.0584  13.6325  22.5589  29.1559

          k = 0.4529 0.3623 0.0906 (   186 PWs)   bands (ev):

     8.3106   9.5301  11.3402  11.7015  12.3922  14.9986  19.9369  28.6279

          k = 0.3623 0.1811 0.1811 (   181 PWs)   bands (ev):

     8.6656   9.6574  10.1294  11.5359  11.9910  13.8786  25.1857  25.9302

          k = 0.4529 0.2717 0.1811 (   182 PWs)   bands (ev):

     8.8854   9.5907  10.3878  11.7144  12.1202  16.2932  21.1893  24.6201

          k = 0.5434 0.2717 0.2717 (   185 PWs)   bands (ev):

     9.2193   9.8175   9.8175  11.9446  11.9446  19.5037  19.5037  21.9406

          k = 0.1811 0.1811 0.1811 (   180 PWs)   bands (ev):

     7.3530   9.9091   9.9091  11.6614  11.6614  12.2767  29.7393  29.7393

          k = 0.2717 0.2717 0.1811 (   179 PWs)   bands (ev):

     8.6027   9.6101   9.9710  11.7035  11.8004  13.7302  25.1604  28.1300

          k = 0.3623 0.3623 0.1811 (   182 PWs)   bands (ev):

     8.7009   9.4512  10.9013  11.7874  11.8617  15.7579  20.9966  27.2682

          k = 0.0000-0.0000 0.1811 (   181 PWs)   bands (ev):

     5.6881  10.5086  10.5086  10.7462  11.2728  11.8449  33.7901  35.6548

          k = 0.3623 0.2717 0.2717 (   183 PWs)   bands (ev):

     9.1937   9.5478  10.0057  11.7925  11.8817  15.9788  23.4384  24.2197

          k = 0.4529 0.3623 0.2717 (   183 PWs)   bands (ev):

     9.1689   9.5525  10.2588  11.8517  11.9013  18.3704  20.4382  23.4511

          k = 0.0000-0.0906 0.2717 (   186 PWs)   bands (ev):

     6.9491  10.3001  10.4006  11.0967  11.3695  12.0160  29.9274  33.2475

          k =-0.0000-0.1811 0.3623 (   184 PWs)   bands (ev):

     8.1539   9.9992  10.3279  11.4390  12.2467  12.5633  24.9188  31.5499

          k = 0.0906-0.0906 0.3623 (   187 PWs)   bands (ev):

     8.1574   9.9432  10.4082  11.1116  11.9409  12.6542  27.6472  28.4147

          k = 0.0000-0.2717 0.4529 (   182 PWs)   bands (ev):

     8.3536   9.8067  10.7068  11.5329  12.8929  14.4124  20.7910  30.6208

          k = 0.0906-0.1811 0.4529 (   182 PWs)   bands (ev):

     8.7706   9.7382  10.2824  11.4373  12.3964  14.5822  23.1455  26.6194

          k =-0.7246-0.2717-0.2717 (   187 PWs)   bands (ev):

     8.7394   9.9652  10.0860  11.5266  12.6865  16.6391  20.1431  26.0630

          k =-0.6340-0.1811-0.2717 (   189 PWs)   bands (ev):

     9.3494   9.3753   9.9708  11.8350  12.3222  17.6289  21.5140  22.7341

          k = 0.3623 0.3623 0.3623 (   180 PWs)   bands (ev):

     9.5489   9.5489   9.8783  11.8799  11.8799  18.8715  22.5302  22.5302

          k = 0.0000 0.0000 0.3623 (   185 PWs)   bands (ev):

     7.9479  10.2215  10.7766  10.7766  11.4057  12.5168  30.5919  30.8088

          k =-0.0000-0.0906 0.4529 (   188 PWs)   bands (ev):

     8.7414   9.6166  10.7437  11.1897  12.1382  13.8008  25.8753  28.6037

          k = 0.0000-0.1811 0.5434 (   185 PWs)   bands (ev):

     8.7823   9.5147  10.6208  11.3592  12.8105  16.4057  21.4346  27.2888

          k = 0.0906-0.0906 0.5434 (   187 PWs)   bands (ev):

     8.9820   9.1147  10.8108  11.6564  12.4881  16.2056  24.0821  24.5949

          k =-0.7246-0.1811-0.1811 (   194 PWs)   bands (ev):

     8.8677   9.0937  10.7140  11.9332  12.6692  18.9882  20.7465  23.7832

          k = 0.0000-0.0000 0.5434 (   196 PWs)   bands (ev):

     8.7967   9.0359  11.5711  11.5711  12.1770  15.6713  26.1761  26.1761

          k = 0.0000-0.0906 0.6340 (   192 PWs)   bands (ev):

     8.6149   8.6934  11.7200  11.9406  12.7189  18.5716  22.6110  24.7126

          k =-0.7246-0.0906-0.0906 (   188 PWs)   bands (ev):

     8.4839   8.4839  11.8229  12.6025  12.6025  21.5307  21.5307  22.4222

          k = 0.0000 0.0000 0.7246 (   188 PWs)   bands (ev):

     8.2799   8.2843  12.5721  12.5721  12.6922  21.0527  23.1130  23.1130

 ------ SPIN DOWN ----------


          k = 0.0000 0.0000 0.0000 (   177 PWs)   bands (ev):

     4.8225  13.0053  13.0053  13.0053  14.9286  14.9286  36.9756  36.9756

          k = 0.0906 0.0906 0.0000 (   189 PWs)   bands (ev):

     5.3201  12.8439  12.9603  13.2908  14.7695  14.9420  34.6873  36.3429

          k = 0.1811 0.1811 0.0000 (   186 PWs)   bands (ev):

     6.7052  12.4522  12.7195  14.0667  14.6023  14.9949  30.2291  34.2762

          k = 0.2717 0.2717 0.0000 (   182 PWs)   bands (ev):

     8.5031  12.0327  12.5559  14.6905  15.0687  15.0902  25.5908  32.1910

          k = 0.3623 0.3623 0.0000 (   182 PWs)   bands (ev):

     9.5511  11.7719  13.2961  14.8024  15.1747  15.8193  22.1221  30.9920

          k = 0.1811 0.0906 0.0906 (   184 PWs)   bands (ev):

     6.2673  12.6361  12.7063  13.8703  14.5575  15.0199  32.2954  33.4380

          k = 0.2717 0.1811 0.0906 (   182 PWs)   bands (ev):

     7.9238  12.2195  12.3763  14.5099  14.8446  15.1538  28.0389  31.0629

          k = 0.3623 0.2717 0.0906 (   182 PWs)   bands (ev):

     9.4834  11.8757  12.4548  14.6883  15.2148  16.0122  23.7360  29.6072

          k = 0.4529 0.3623 0.0906 (   186 PWs)   bands (ev):

     9.9238  11.7558  12.9340  14.7696  15.3253  16.7264  21.5524  29.0625

          k = 0.3623 0.1811 0.1811 (   181 PWs)   bands (ev):

     9.5335  11.8118  12.1341  14.5584  15.1902  16.2462  26.1020  26.6768

          k = 0.4529 0.2717 0.1811 (   182 PWs)   bands (ev):

    10.5393  11.6847  12.1104  14.7569  15.2135  18.0044  22.4462  25.4128

          k = 0.5434 0.2717 0.2717 (   185 PWs)   bands (ev):

    11.2062  11.6545  11.6545  15.0057  15.0057  20.7891  20.7891  22.9872

          k = 0.1811 0.1811 0.1811 (   180 PWs)   bands (ev):

     7.5674  12.2179  12.2179  14.8653  14.8653  14.8779  30.2667  30.2667

          k = 0.2717 0.2717 0.1811 (   179 PWs)   bands (ev):

     9.2950  11.8129  11.9133  14.8736  15.0833  16.1453  26.0376  28.6856

          k = 0.3623 0.3623 0.1811 (   182 PWs)   bands (ev):

    10.2642  11.5942  12.3064  14.9525  15.1930  17.5376  22.3125  27.8129

          k = 0.0000-0.0000 0.1811 (   181 PWs)   bands (ev):

     5.8040  12.9800  12.9800  13.2973  14.3584  15.1309  33.8899  35.9616

          k = 0.3623 0.2717 0.2717 (   183 PWs)   bands (ev):

    10.6577  11.5352  11.6994  15.0110  15.1796  17.8784  24.4032  25.0377

          k = 0.4529 0.3623 0.2717 (   183 PWs)   bands (ev):

    10.9818  11.4952  11.8812  15.0851  15.1995  19.6973  21.7340  24.3073

          k = 0.0000-0.0906 0.2717 (   186 PWs)   bands (ev):

     7.1446  12.7110  12.8065  13.9958  14.0041  15.2790  30.5455  33.5036

          k =-0.0000-0.1811 0.3623 (   184 PWs)   bands (ev):

     8.8771  12.3344  12.3856  14.2508  15.0096  15.4786  25.8951  31.7778

          k = 0.0906-0.0906 0.3623 (   187 PWs)   bands (ev):

     8.6471  12.3276  12.7085  13.8734  14.7254  15.5614  28.4602  29.0857

          k = 0.0000-0.2717 0.4529 (   182 PWs)   bands (ev):

     9.9042  12.0956  12.5224  14.4571  15.7804  16.1985  22.2255  30.8251

          k = 0.0906-0.1811 0.4529 (   182 PWs)   bands (ev):

    10.0810  11.8564  12.4889  14.2265  15.2848  16.6722  24.2258  27.3555

          k =-0.7246-0.2717-0.2717 (   187 PWs)   bands (ev):

    10.5283  11.9688  12.2344  14.3569  15.5544  18.0584  21.6165  26.7817

          k =-0.6340-0.1811-0.2717 (   189 PWs)   bands (ev):

    11.1248  11.4463  12.1321  14.6400  15.1836  19.1208  22.6839  23.6627

          k = 0.3623 0.3623 0.3623 (   180 PWs)   bands (ev):

    11.4394  11.4394  11.4666  15.2104  15.2104  20.2279  23.5127  23.5127

          k = 0.0000 0.0000 0.3623 (   185 PWs)   bands (ev):

     8.3210  12.9329  13.1979  13.1979  14.0549  15.5689  31.1610  31.5255

          k =-0.0000-0.0906 0.4529 (   188 PWs)   bands (ev):

     9.7351  12.0170  13.1534  13.7351  14.8833  16.1418  26.7561  29.3065

          k = 0.0000-0.1811 0.5434 (   185 PWs)   bands (ev):

    10.5943  11.5375  13.0058  13.9815  15.6830  17.8673  22.6316  27.9190

          k = 0.0906-0.0906 0.5434 (   187 PWs)   bands (ev):

    10.6163  11.3817  13.1985  14.2500  15.2936  17.7828  25.0366  25.3507

          k =-0.7246-0.1811-0.1811 (   194 PWs)   bands (ev):

    10.9519  11.1244  13.0310  14.5888  15.4977  20.1100  21.8984  24.5652

          k = 0.0000-0.0000 0.5434 (   196 PWs)   bands (ev):

    10.3835  11.3878  14.0736  14.0736  14.9488  17.2517  26.8166  26.8166

          k = 0.0000-0.0906 0.6340 (   192 PWs)   bands (ev):

    10.6347  10.8580  14.2860  14.5091  15.5755  19.5944  23.3977  25.2370

          k =-0.7246-0.0906-0.0906 (   188 PWs)   bands (ev):

    10.6071  10.6071  14.3731  15.3996  15.3996  22.2525  22.2525  23.0312

          k = 0.0000 0.0000 0.7246 (   188 PWs)   bands (ev):

    10.3847  10.4359  15.3568  15.3568  15.5507  21.5983  23.4515  23.4515

     the Fermi energy is    12.9210 ev

!    total energy              =     -55.80166581 Ry
     estimated scf accuracy    <          4.7E-11 Ry
     smearing contrib. (-TS)   =       0.00008955 Ry
     internal energy E=F+TS    =     -55.80175535 Ry

     The total energy is F=E-TS. E is the sum of the following terms:
     one-electron contribution =       6.90552937 Ry
     hartree contribution      =       6.72241416 Ry
     xc contribution           =     -26.46208731 Ry
     ewald contribution        =     -42.96761157 Ry

     total magnetization       =     2.51 Bohr mag/cell
     absolute magnetization    =     2.67 Bohr mag/cell

     convergence has been achieved in   7 iterations

     Forces acting on atoms (cartesian axes, Ry/au):

     atom    1 type  1   force =     0.00000000    0.00000000    0.00000000

     Total force =     0.000000     Total SCF correction =     0.000000


     Computing stress (Cartesian axis) and pressure

          total   stress  (Ry/bohr**3)                   (kbar)     P=       -1.30
  -0.00000881  -0.00000000  -0.00000000           -1.30       -0.00       -0.00
  -0.00000000  -0.00000881  -0.00000000           -0.00       -1.30       -0.00
  -0.00000000  -0.00000000  -0.00000881           -0.00       -0.00       -1.30

     Energy error            =      1.8E-05 Ry
     Gradient error          =      0.0E+00 Ry/Bohr
     Cell gradient error     =      1.3E+00 kbar

     number of scf cycles    =   4
     number of bfgs steps    =   3

     enthalpy           old  =     -55.8016475063 Ry
     enthalpy           new  =     -55.8016658062 Ry

     CASE: enthalpy          _new < enthalpy          _old

     new trust radius        =       0.0006386903 bohr
     new conv_thr            =       0.0000000010 Ry

     new unit-cell volume =     79.55175 a.u.^3 (    11.78835 Ang^3 )
     density =      7.86648 g/cm^3

CELL_PARAMETERS (angstrom)
  -1.433720097   1.433720097   1.433720097
   1.433720097  -1.433720097   1.433720097
   1.433720097   1.433720097  -1.433720097

ATOMIC_POSITIONS (angstrom)
Fe               0.0000000000        0.0000000000        0.0000000000


     Message from routine punch:
     Nothing written, as per user request (disk_io='none')
     NEW-OLD atomic charge density approx. for the potential
     New effective cutoffs (rho, wfc):  263.53   26.59

     Check: negative core charge=   -0.000003
     Generating pointlists ...

     total cpu time spent up to now is        6.2 secs

     Self-consistent Calculation

     iteration #  1     ecut=    30.00 Ry     beta= 0.50
     Davidson diagonalization with overlap
     ethr =  1.00E-06,  avg # of iterations =  2.0

     Threshold (ethr) on eigenvalues was too large:
     Diagonalizing with lowered threshold

     Davidson diagonalization with overlap
     ethr =  1.57E-09,  avg # of iterations =  2.1

     total cpu time spent up to now is        6.4 secs

     total energy              =     -55.80166600 Ry
     estimated scf accuracy    <       0.00000012 Ry

     total magnetization       =     2.51 Bohr mag/cell
     absolute magnetization    =     2.67 Bohr mag/cell

     iteration #  2     ecut=    30.00 Ry     beta= 0.50
     Davidson diagonalization with overlap
     ethr =  1.45E-09,  avg # of iterations =  1.0

     total cpu time spent up to now is        6.5 secs

     total energy              =     -55.80166605 Ry
     estimated scf accuracy    <       0.00000007 Ry

     total magnetization       =     2.51 Bohr mag/cell
     absolute magnetization    =     2.66 Bohr mag/cell

     iteration #  3     ecut=    30.00 Ry     beta= 0.50
     Davidson diagonalization with overlap
     ethr =  8.44E-10,  avg # of iterations =  1.5

     total cpu time spent up to now is        6.6 secs

     total energy              =     -55.80166610 Ry
     estimated scf accuracy    <       0.00000002 Ry

     total magnetization       =     2.51 Bohr mag/cell
     absolute magnetization    =     2.66 Bohr mag/cell

     iteration #  4     ecut=    30.00 Ry     beta= 0.50
     Davidson diagonalization with overlap
     ethr =  1.91E-10,  avg # of iterations =  1.5

     total cpu time spent up to now is        6.7 secs

     total energy              =     -55.80166610 Ry
     estimated scf accuracy    <          3.1E-09 Ry

     total magnetization       =     2.51 Bohr mag/cell
     absolute magnetization    =     2.66 Bohr mag/cell

     iteration #  5     ecut=    30.00 Ry     beta= 0.50
     Davidson diagonalization with overlap
     ethr =  3.90E-11,  avg # of iterations =  2.2

     Magnetic moment per site  (integrated on atomic sphere of radius R)
     atom   1 (R=0.413)  charge=  6.1687  magn=  2.5571

     total cpu time spent up to now is        6.9 secs

     End of self-consistent calculation

 ------ SPIN UP ------------


          k = 0.0000 0.0000 0.0000 (   177 PWs)   bands (ev):

     4.7306  10.5083  10.5083  10.5083  11.7032  11.7032  37.3107  37.3107

          k = 0.0906 0.0906 0.0000 (   189 PWs)   bands (ev):

     5.2245  10.3828  10.4934  10.7633  11.5932  11.7139  34.5815  36.5189

          k = 0.1812 0.1812 0.0000 (   186 PWs)   bands (ev):

     6.5487  10.0747  10.4131  11.4493  11.5179  11.7518  29.6343  34.2895

          k = 0.2718 0.2718 0.0000 (   182 PWs)   bands (ev):

     7.8409   9.7395  10.9735  11.6757  11.8142  12.3161  24.6130  32.2233

          k = 0.3624 0.3624 0.0000 (   182 PWs)   bands (ev):

     8.0932   9.5286  11.7184  11.8669  12.9475  13.0537  20.6410  31.0714

          k = 0.1812 0.0906 0.0906 (   184 PWs)   bands (ev):

     6.1481  10.2394  10.2996  11.2992  11.4564  11.7805  31.9335  33.0986

          k = 0.2718 0.1812 0.0906 (   182 PWs)   bands (ev):

     7.6031   9.9126  10.2180  11.4810  11.8702  12.2757  27.2856  30.6322

          k = 0.3624 0.2718 0.0906 (   182 PWs)   bands (ev):

     8.3130   9.6432  10.9363  11.6829  12.0782  13.6540  22.5874  29.1857

          k = 0.4530 0.3624 0.0906 (   186 PWs)   bands (ev):

     8.3244   9.5461  11.3583  11.7208  12.4126  15.0198  19.9651  28.6573

          k = 0.3624 0.1812 0.1812 (   181 PWs)   bands (ev):

     8.6804   9.6732  10.1462  11.5549  12.0108  13.9007  25.2138  25.9607

          k = 0.4530 0.2718 0.1812 (   182 PWs)   bands (ev):

     8.9002   9.6066  10.4045  11.7337  12.1403  16.3164  21.2169  24.6491

          k = 0.5436 0.2718 0.2718 (   185 PWs)   bands (ev):

     9.2348   9.8334   9.8334  11.9644  11.9644  19.5287  19.5287  21.9701

          k = 0.1812 0.1812 0.1812 (   180 PWs)   bands (ev):

     7.3673   9.9256   9.9256  11.6804  11.6804  12.2973  29.7688  29.7688

          k = 0.2718 0.2718 0.1812 (   179 PWs)   bands (ev):

     8.6175   9.6261   9.9874  11.7227  11.8197  13.7523  25.1893  28.1588

          k = 0.3624 0.3624 0.1812 (   182 PWs)   bands (ev):

     8.7154   9.4671  10.9189  11.8069  11.8811  15.7807  21.0245  27.2964

          k = 0.0000-0.0000 0.1812 (   181 PWs)   bands (ev):

     5.7011  10.5263  10.5263  10.7643  11.2910  11.8643  33.8183  35.6874

          k = 0.3624 0.2718 0.2718 (   183 PWs)   bands (ev):

     9.2091   9.5636  10.0222  11.8119  11.9012  16.0024  23.4657  24.2493

          k = 0.4530 0.3624 0.2718 (   183 PWs)   bands (ev):

     9.1842   9.5683  10.2756  11.8712  11.9208  18.3946  20.4653  23.4798

          k = 0.0000-0.0906 0.2718 (   186 PWs)   bands (ev):

     6.9630  10.3174  10.4177  11.1149  11.3886  12.0357  29.9578  33.2779

          k = 0.0000-0.1812 0.3624 (   184 PWs)   bands (ev):

     8.1681  10.0160  10.3444  11.4580  12.2673  12.5835  24.9481  31.5789

          k = 0.0906-0.0906 0.3624 (   187 PWs)   bands (ev):

     8.1718   9.9592  10.4256  11.1300  11.9609  12.6748  27.6766  28.4464

          k = 0.0000-0.2718 0.4530 (   182 PWs)   bands (ev):

     8.3675   9.8231  10.7238  11.5520  12.9147  14.4331  20.8191  30.6491

          k = 0.0906-0.1812 0.4530 (   182 PWs)   bands (ev):

     8.7851   9.7539  10.2993  11.4563  12.4172  14.6043  23.1740  26.6494

          k =-0.7248-0.2718-0.2718 (   187 PWs)   bands (ev):

     8.7536   9.9819  10.1020  11.5457  12.7078  16.6616  20.1710  26.0926

          k =-0.6342-0.1812-0.2718 (   189 PWs)   bands (ev):

     9.3646   9.3902   9.9872  11.8548  12.3428  17.6531  21.5404  22.7633

          k = 0.3624 0.3624 0.3624 (   180 PWs)   bands (ev):

     9.5648   9.5648   9.8946  11.8993  11.8993  18.8966  22.5569  22.5569

          k = 0.0000 0.0000 0.3624 (   185 PWs)   bands (ev):

     7.9622  10.2377  10.7947  10.7947  11.4249  12.5371  30.6200  30.8419

          k =-0.0000-0.0906 0.4530 (   188 PWs)   bands (ev):

     8.7558   9.6318  10.7617  11.2083  12.1586  13.8223  25.9049  28.6355

          k = 0.0000-0.1812 0.5436 (   185 PWs)   bands (ev):

     8.7964   9.5298  10.6386  11.3781  12.8322  16.4286  21.4624  27.3194

          k = 0.0906-0.0906 0.5436 (   187 PWs)   bands (ev):

     8.9964   9.1291  10.8288  11.6758  12.5091  16.2287  24.1102  24.6244

          k =-0.7248-0.1812-0.1812 (   194 PWs)   bands (ev):

     8.8817   9.1080  10.7319  11.9532  12.6905  19.0125  20.7736  23.8117

          k =-0.0000-0.0000 0.5436 (   196 PWs)   bands (ev):

     8.8108   9.0500  11.5904  11.5904  12.1976  15.6940  26.2058  26.2058

          k = 0.0000-0.0906 0.6342 (   192 PWs)   bands (ev):

     8.6285   8.7071  11.7396  11.9605  12.7404  18.5960  22.6384  24.7409

          k =-0.7248-0.0906-0.0906 (   188 PWs)   bands (ev):

     8.4972   8.4972  11.8427  12.6238  12.6238  21.5566  21.5566  22.4498

          k = 0.0000 0.0000 0.7248 (   188 PWs)   bands (ev):

     8.2929   8.2973  12.5932  12.5932  12.7137  21.0782  23.1396  23.1396

 ------ SPIN DOWN ----------


          k = 0.0000 0.0000 0.0000 (   177 PWs)   bands (ev):

     4.8351  13.0185  13.0185  13.0185  14.9452  14.9452  37.0048  37.0048

          k = 0.0906 0.0906 0.0000 (   189 PWs)   bands (ev):

     5.3331  12.8569  12.9735  13.3043  14.7858  14.9586  34.7175  36.3728

          k = 0.1812 0.1812 0.0000 (   186 PWs)   bands (ev):

     6.7191  12.4647  12.7328  14.0813  14.6183  15.0116  30.2593  34.3063

          k = 0.2718 0.2718 0.0000 (   182 PWs)   bands (ev):

     8.5172  12.0448  12.5705  14.7065  15.0846  15.1070  25.6193  32.2199

          k = 0.3624 0.3624 0.0000 (   182 PWs)   bands (ev):

     9.5630  11.7836  13.3142  14.8186  15.1916  15.8361  22.1487  31.0201

          k = 0.1812 0.0906 0.0906 (   184 PWs)   bands (ev):

     6.2810  12.6489  12.7192  13.8847  14.5735  15.0366  32.3254  33.4693

          k = 0.2718 0.1812 0.0906 (   182 PWs)   bands (ev):

     7.9383  12.2319  12.3894  14.5257  14.8603  15.1707  28.0684  31.0932

          k = 0.3624 0.2718 0.0906 (   182 PWs)   bands (ev):

     9.4967  11.8877  12.4700  14.7043  15.2317  16.0299  23.7635  29.6367

          k = 0.4530 0.3624 0.0906 (   186 PWs)   bands (ev):

     9.9356  11.7677  12.9508  14.7857  15.3424  16.7454  21.5786  29.0916

          k = 0.3624 0.1812 0.1812 (   181 PWs)   bands (ev):

[...]

     starting charge       7.9994, renormalised to       8.0000
     Starting wfcs are    6 randomized atomic wfcs +    2 random wfcs

     total cpu time spent up to now is        7.2 secs

     Self-consistent Calculation

     iteration #  1     ecut=    30.00 Ry     beta= 0.50
     Davidson diagonalization with overlap
     c_bands:  1 eigenvalues not converged
     c_bands:  1 eigenvalues not converged
     c_bands:  1 eigenvalues not converged
     c_bands:  1 eigenvalues not converged
     c_bands:  1 eigenvalues not converged
     c_bands:  1 eigenvalues not converged
     c_bands:  1 eigenvalues not converged
     c_bands:  1 eigenvalues not converged
     c_bands:  1 eigenvalues not converged
     c_bands:  1 eigenvalues not converged
     c_bands:  1 eigenvalues not converged
     c_bands:  1 eigenvalues not converged
     c_bands:  1 eigenvalues not converged
     c_bands:  1 eigenvalues not converged
     c_bands:  1 eigenvalues not converged
     c_bands:  1 eigenvalues not converged
     c_bands:  1 eigenvalues not converged
     ethr =  1.00E-06,  avg # of iterations = 17.2

     total cpu time spent up to now is        8.0 secs

     total energy              =     -55.67167927 Ry
     estimated scf accuracy    <       0.35910417 Ry

     total magnetization       =     2.34 Bohr mag/cell
     absolute magnetization    =     2.34 Bohr mag/cell

     iteration #  2     ecut=    30.00 Ry     beta= 0.50
     Davidson diagonalization with overlap
     ethr =  4.49E-03,  avg # of iterations =  2.0

     total cpu time spent up to now is        8.2 secs

     total energy              =     -55.77711733 Ry
     estimated scf accuracy    <       0.10233858 Ry

     total magnetization       =     2.56 Bohr mag/cell
     absolute magnetization    =     2.57 Bohr mag/cell

     iteration #  3     ecut=    30.00 Ry     beta= 0.50
     Davidson diagonalization with overlap
     ethr =  1.28E-03,  avg # of iterations =  1.0

     total cpu time spent up to now is        8.4 secs

     total energy              =     -55.80017698 Ry
     estimated scf accuracy    <       0.00168590 Ry

     total magnetization       =     2.49 Bohr mag/cell
     absolute magnetization    =     2.53 Bohr mag/cell

     iteration #  4     ecut=    30.00 Ry     beta= 0.50
     Davidson diagonalization with overlap
     ethr =  2.11E-05,  avg # of iterations =  2.1

     total cpu time spent up to now is        8.6 secs

     total energy              =     -55.80197561 Ry
     estimated scf accuracy    <       0.00026672 Ry

     total magnetization       =     2.47 Bohr mag/cell
     absolute magnetization    =     2.57 Bohr mag/cell

     iteration #  5     ecut=    30.00 Ry     beta= 0.50
     Davidson diagonalization with overlap
     ethr =  3.33E-06,  avg # of iterations =  2.7

     total cpu time spent up to now is        8.8 secs

     total energy              =     -55.80229198 Ry
     estimated scf accuracy    <       0.00002584 Ry

     total magnetization       =     2.46 Bohr mag/cell
     absolute magnetization    =     2.61 Bohr mag/cell

     iteration #  6     ecut=    30.00 Ry     beta= 0.50
     Davidson diagonalization with overlap
     ethr =  3.23E-07,  avg # of iterations =  3.1

     total cpu time spent up to now is        9.0 secs

     total energy              =     -55.80232515 Ry
     estimated scf accuracy    <       0.00001077 Ry

     total magnetization       =     2.48 Bohr mag/cell
     absolute magnetization    =     2.63 Bohr mag/cell

     iteration #  7     ecut=    30.00 Ry     beta= 0.50
     Davidson diagonalization with overlap
     ethr =  1.35E-07,  avg # of iterations =  1.7

     total cpu time spent up to now is        9.2 secs

     total energy              =     -55.80231657 Ry
     estimated scf accuracy    <       0.00001435 Ry

     total magnetization       =     2.48 Bohr mag/cell
     absolute magnetization    =     2.63 Bohr mag/cell

     iteration #  8     ecut=    30.00 Ry     beta= 0.50
     Davidson diagonalization with overlap
     ethr =  1.35E-07,  avg # of iterations =  1.8

     total cpu time spent up to now is        9.4 secs

     total energy              =     -55.80235070 Ry
     estimated scf accuracy    <       0.00000218 Ry

     total magnetization       =     2.51 Bohr mag/cell
     absolute magnetization    =     2.66 Bohr mag/cell

     iteration #  9     ecut=    30.00 Ry     beta= 0.50
     Davidson diagonalization with overlap
     ethr =  2.73E-08,  avg # of iterations =  2.9

     total cpu time spent up to now is        9.7 secs

     total energy              =     -55.80235128 Ry
     estimated scf accuracy    <       0.00000018 Ry

     total magnetization       =     2.51 Bohr mag/cell
     absolute magnetization    =     2.66 Bohr mag/cell

     iteration # 10     ecut=    30.00 Ry     beta= 0.50
     Davidson diagonalization with overlap
     ethr =  2.27E-09,  avg # of iterations =  5.1

     total cpu time spent up to now is       10.0 secs

     total energy              =     -55.80235244 Ry
     estimated scf accuracy    <       0.00000010 Ry

     total magnetization       =     2.51 Bohr mag/cell
     absolute magnetization    =     2.67 Bohr mag/cell

     iteration # 11     ecut=    30.00 Ry     beta= 0.50
     Davidson diagonalization with overlap
     ethr =  1.25E-09,  avg # of iterations =  1.9

     total cpu time spent up to now is       10.2 secs

     total energy              =     -55.80235270 Ry
     estimated scf accuracy    <          7.4E-09 Ry

     total magnetization       =     2.51 Bohr mag/cell
     absolute magnetization    =     2.66 Bohr mag/cell

     iteration # 12     ecut=    30.00 Ry     beta= 0.50
     Davidson diagonalization with overlap
     ethr =  9.26E-11,  avg # of iterations =  3.8

     total cpu time spent up to now is       10.5 secs

     total energy              =     -55.80235271 Ry
     estimated scf accuracy    <          1.9E-09 Ry

     total magnetization       =     2.51 Bohr mag/cell
     absolute magnetization    =     2.66 Bohr mag/cell

     iteration # 13     ecut=    30.00 Ry     beta= 0.50
     Davidson diagonalization with overlap
     ethr =  2.32E-11,  avg # of iterations =  2.4

     Magnetic moment per site  (integrated on atomic sphere of radius R)
     atom   1 (R=0.413)  charge=  6.1695  magn=  2.5576

     total cpu time spent up to now is       10.7 secs

     End of self-consistent calculation

 ------ SPIN UP ------------


          k = 0.0000 0.0000 0.0000 (   225 PWs)   bands (ev):

     4.7320  10.5054  10.5054  10.5054  11.7012  11.7012  37.3094  37.3094

          k = 0.0906 0.0906 0.0000 (   219 PWs)   bands (ev):

     5.2260  10.3800  10.4909  10.7612  11.5912  11.7118  34.5798  36.5184

          k = 0.1812 0.1812 0.0000 (   217 PWs)   bands (ev):

     6.5499  10.0723  10.4112  11.4470  11.5157  11.7495  29.6328  34.2895

          k = 0.2718 0.2718 0.0000 (   221 PWs)   bands (ev):

     7.8408   9.7372  10.9727  11.6734  11.8117  12.3136  24.6127  32.2238

          k = 0.3624 0.3624 0.0000 (   220 PWs)   bands (ev):

     8.0925   9.5265  11.7160  11.8640  12.9446  13.0547  20.6405  31.0724

          k = 0.1812 0.0906 0.0906 (   220 PWs)   bands (ev):

     6.1494  10.2369  10.2972  11.2968  11.4544  11.7781  31.9310  33.0959

          k = 0.2718 0.1812 0.0906 (   215 PWs)   bands (ev):

     7.6038   9.9106  10.2162  11.4789  11.8679  12.2735  27.2849  30.6318

          k = 0.3624 0.2718 0.0906 (   219 PWs)   bands (ev):

     8.3124   9.6410  10.9351  11.6806  12.0758  13.6527  22.5872  29.1858

          k = 0.4530 0.3624 0.0906 (   223 PWs)   bands (ev):

     8.3237   9.5438  11.3564  11.7184  12.4103  15.0197  19.9646  28.6580

          k = 0.3624 0.1812 0.1812 (   225 PWs)   bands (ev):

     8.6799   9.6708  10.1445  11.5527  12.0081  13.8992  25.2132  25.9611

          k = 0.4530 0.2718 0.1812 (   222 PWs)   bands (ev):

     8.8991   9.6044  10.4032  11.7315  12.1378  16.3161  21.2168  24.6494

          k = 0.5436 0.2718 0.2718 (   222 PWs)   bands (ev):

     9.2329   9.8320   9.8320  11.9622  11.9622  19.5285  19.5285  21.9708

          k = 0.1812 0.1812 0.1812 (   210 PWs)   bands (ev):

     7.3684   9.9237   9.9237  11.6783  11.6783  12.2952  29.7669  29.7669

          k = 0.2718 0.2718 0.1812 (   224 PWs)   bands (ev):

     8.6173   9.6240   9.9857  11.7204  11.8170  13.7505  25.1891  28.1579

          k = 0.3624 0.3624 0.1812 (   217 PWs)   bands (ev):

     8.7146   9.4651  10.9180  11.8044  11.8785  15.7802  21.0244  27.2958

          k = 0.0000-0.0000 0.1812 (   217 PWs)   bands (ev):

     5.7025  10.5240  10.5240  10.7620  11.2891  11.8620  33.8159  35.6837

          k = 0.3624 0.2718 0.2718 (   222 PWs)   bands (ev):

     9.2076   9.5615  10.0212  11.8094  11.8986  16.0017  23.4653  24.2498

          k = 0.4530 0.3624 0.2718 (   221 PWs)   bands (ev):

     9.1827   9.5664  10.2746  11.8687  11.9182  18.3944  20.4651  23.4802

          k = 0.0000-0.0906 0.2718 (   214 PWs)   bands (ev):

     6.9642  10.3152  10.4159  11.1129  11.3864  12.0336  29.9568  33.2771

          k = 0.0000-0.1812 0.3624 (   226 PWs)   bands (ev):

     8.1678  10.0136  10.3428  11.4556  12.2646  12.5817  24.9477  31.5789

          k = 0.0906-0.0906 0.3624 (   223 PWs)   bands (ev):

     8.1722   9.9573  10.4234  11.1279  11.9583  12.6729  27.6757  28.4465

          k = 0.0000-0.2718 0.4530 (   220 PWs)   bands (ev):

     8.3665   9.8209  10.7222  11.5497  12.9120  14.4332  20.8188  30.6487

          k = 0.0906-0.1812 0.4530 (   222 PWs)   bands (ev):

     8.7843   9.7522  10.2972  11.4540  12.4146  14.6037  23.1738  26.6491

          k =-0.7248-0.2718-0.2718 (   216 PWs)   bands (ev):

     8.7528   9.9799  10.1008  11.5436  12.7054  16.6619  20.1709  26.0925

          k =-0.6342-0.1812-0.2718 (   222 PWs)   bands (ev):

     9.3636   9.3887   9.9853  11.8524  12.3403  17.6530  21.5403  22.7640

          k = 0.3624 0.3624 0.3624 (   222 PWs)   bands (ev):

     9.5629   9.5629   9.8935  11.8967  11.8967  18.8960  22.5566  22.5567

          k = 0.0000 0.0000 0.3624 (   217 PWs)   bands (ev):

     7.9629  10.2360  10.7927  10.7927  11.4228  12.5352  30.6173  30.8412

          k =-0.0000-0.0906 0.4530 (   221 PWs)   bands (ev):

     8.7556   9.6301  10.7595  11.2061  12.1560  13.8217  25.9046  28.6358

          k = 0.0000-0.1812 0.5436 (   221 PWs)   bands (ev):

     8.7953   9.5285  10.6365  11.3760  12.8295  16.4288  21.4623  27.3199

          k = 0.0906-0.0906 0.5436 (   227 PWs)   bands (ev):

     8.9956   9.1273  10.8265  11.6733  12.5065  16.2289  24.1099  24.6248

          k =-0.7248-0.1812-0.1812 (   224 PWs)   bands (ev):

     8.8802   9.1068  10.7298  11.9508  12.6880  19.0130  20.7739  23.8123

          k =-0.0000-0.0000 0.5436 (   221 PWs)   bands (ev):

     8.8100   9.0486  11.5883  11.5883  12.1949  15.6943  26.2068  26.2068

          k = 0.0000-0.0906 0.6342 (   224 PWs)   bands (ev):

     8.6270   8.7060  11.7372  11.9584  12.7378  18.5968  22.6391  24.7419

          k =-0.7248-0.0906-0.0906 (   230 PWs)   bands (ev):

     8.4956   8.4956  11.8404  12.6211  12.6211  21.5574  21.5574  22.4510

          k = 0.0000 0.0000 0.7248 (   236 PWs)   bands (ev):

     8.2909   8.2955  12.5905  12.5905  12.7109  21.0793  23.1413  23.1413

 ------ SPIN DOWN ----------


          k = 0.0000 0.0000 0.0000 (   225 PWs)   bands (ev):

     4.8376  13.0161  13.0161  13.0161  14.9434  14.9434  37.0046  37.0046

          k = 0.0906 0.0906 0.0000 (   219 PWs)   bands (ev):

     5.3356  12.8547  12.9718  13.3029  14.7841  14.9567  34.7169  36.3734

          k = 0.1812 0.1812 0.0000 (   217 PWs)   bands (ev):

     6.7215  12.4631  12.7314  14.0796  14.6165  15.0093  30.2587  34.3074

          k = 0.2718 0.2718 0.0000 (   221 PWs)   bands (ev):

     8.5188  12.0433  12.5696  14.7044  15.0827  15.1044  25.6198  32.2215

          k = 0.3624 0.3624 0.0000 (   220 PWs)   bands (ev):

     9.5637  11.7824  13.3158  14.8164  15.1883  15.8337  22.1488  31.0219

          k = 0.1812 0.0906 0.0906 (   220 PWs)   bands (ev):

     6.2834  12.6471  12.7176  13.8829  14.5716  15.0343  32.3241  33.4682

          k = 0.2718 0.1812 0.0906 (   215 PWs)   bands (ev):

     7.9405  12.2307  12.3881  14.5239  14.8586  15.1685  28.0684  31.0937

          k = 0.3624 0.2718 0.0906 (   219 PWs)   bands (ev):

     9.4978  11.8863  12.4699  14.7023  15.2290  16.0281  23.7639  29.6376

          k = 0.4530 0.3624 0.0906 (   223 PWs)   bands (ev):

     9.9360  11.7661  12.9518  14.7834  15.3394  16.7441  21.5787  29.0930

          k = 0.3624 0.1812 0.1812 (   225 PWs)   bands (ev):

     9.5495  11.8226  12.1456  14.5723  15.2041  16.2628  26.1297  26.7080

          k = 0.4530 0.2718 0.1812 (   222 PWs)   bands (ev):

    10.5522  11.6959  12.1244  14.7710  15.2277  18.0247  22.4729  25.4424

          k = 0.5436 0.2718 0.2718 (   222 PWs)   bands (ev):

    11.2171  11.6678  11.6678  15.0200  15.0200  20.8129  20.8129  23.0171

          k = 0.1812 0.1812 0.1812 (   210 PWs)   bands (ev):

     7.5841  12.2293  12.2293  14.8797  14.8797  14.8922  30.2954  30.2954

          k = 0.2718 0.2718 0.1812 (   224 PWs)   bands (ev):

     9.3114  11.8235  11.9246  14.8876  15.0971  16.1613  26.0664  28.7142

          k = 0.3624 0.3624 0.1812 (   217 PWs)   bands (ev):

    10.2772  11.6049  12.3222  14.9666  15.2071  17.5568  22.3394  27.8411

          k = 0.0000-0.0000 0.1812 (   217 PWs)   bands (ev):

     5.8198  12.9915  12.9915  13.3092  14.3725  15.1455  33.9178  35.9913

          k = 0.3624 0.2718 0.2718 (   222 PWs)   bands (ev):

    10.6724  11.5463  11.7113  15.0251  15.1937  17.8981  24.4298  25.0681

          k = 0.4530 0.3624 0.2718 (   221 PWs)   bands (ev):

    10.9938  11.5064  11.8957  15.0992  15.2136  19.7197  21.7599  24.3365

          k = 0.0000-0.0906 0.2718 (   214 PWs)   bands (ev):

     7.1612  12.7224  12.8187  14.0087  14.0178  15.2940  30.5754  33.5348

          k = 0.0000-0.1812 0.3624 (   226 PWs)   bands (ev):

     8.8929  12.3452  12.3984  14.2643  15.0232  15.4935  25.9241  31.8083

          k = 0.0906-0.0906 0.3624 (   223 PWs)   bands (ev):

     8.6637  12.3392  12.7201  13.8866  14.7390  15.5766  28.4891  29.1177

          k = 0.0000-0.2718 0.4530 (   220 PWs)   bands (ev):

     9.9167  12.1064  12.5384  14.4709  15.7950  16.2165  22.2523  30.8552

          k = 0.0906-0.1812 0.4530 (   222 PWs)   bands (ev):

    10.0957  11.8686  12.5006  14.2399  15.2990  16.6907  24.2540  27.3856

          k =-0.7248-0.2718-0.2718 (   216 PWs)   bands (ev):

    10.5408  11.9836  12.2458  14.3707  15.5693  18.0799  21.6430  26.8117

          k =-0.6342-0.1812-0.2718 (   222 PWs)   bands (ev):

    11.1384  11.4583  12.1440  14.6539  15.1979  19.1435  22.7099  23.6925

          k = 0.3624 0.3624 0.3624 (   222 PWs)   bands (ev):

    11.4509  11.4509  11.4802  15.2245  15.2245  20.2510  23.5386  23.5386

          k = 0.0000 0.0000 0.3624 (   217 PWs)   bands (ev):

     8.3377  12.9455  13.2104  13.2104  14.0680  15.5843  31.1882  31.5578

          k =-0.0000-0.0906 0.4530 (   221 PWs)   bands (ev):

     9.7509  12.0287  13.1656  13.7482  14.8969  16.1599  26.7858  29.3385

          k = 0.0000-0.1812 0.5436 (   221 PWs)   bands (ev):

    10.6071  11.5504  13.0179  13.9950  15.6974  17.8891  22.6588  27.9503

          k = 0.0906-0.0906 0.5436 (   227 PWs)   bands (ev):

    10.6301  11.3927  13.2106  14.2632  15.3077  17.8046  25.0647  25.3809

          k =-0.7248-0.1812-0.1812 (   224 PWs)   bands (ev):

    10.9632  11.1369  13.0435  14.6027  15.5124  20.1344  21.9254  24.5945

          k =-0.0000-0.0000 0.5436 (   221 PWs)   bands (ev):

    10.3973  11.3992  14.0872  14.0872  14.9624  17.2734  26.8475  26.8475

          k = 0.0000-0.0906 0.6342 (   224 PWs)   bands (ev):

    10.6467  10.8685  14.2993  14.5233  15.5898  19.6194  23.4261  25.2668

          k =-0.7248-0.0906-0.0906 (   230 PWs)   bands (ev):

    10.6175  10.6175  14.3869  15.4137  15.4137  22.2797  22.2797  23.0602

          k = 0.0000 0.0000 0.7248 (   236 PWs)   bands (ev):

    10.3945  10.4454  15.3708  15.3708  15.5647  21.6257  23.4805  23.4805

     the Fermi energy is    12.9360 ev

!    total energy              =     -55.80235272 Ry
     estimated scf accuracy    <          5.3E-11 Ry
     smearing contrib. (-TS)   =       0.00008388 Ry
     internal energy E=F+TS    =     -55.80243659 Ry

     The total energy is F=E-TS. E is the sum of the following terms:
     one-electron contribution =       6.92630068 Ry
     hartree contribution      =       6.71590411 Ry
     xc contribution           =     -26.46164830 Ry
     ewald contribution        =     -42.98299308 Ry

     total magnetization       =     2.51 Bohr mag/cell
     absolute magnetization    =     2.66 Bohr mag/cell

     convergence has been achieved in  13 iterations

     Forces acting on atoms (cartesian axes, Ry/au):

     atom    1 type  1   force =     0.00000000    0.00000000    0.00000000

     Total force =     0.000000     Total SCF correction =     0.000000


     Computing stress (Cartesian axis) and pressure

          total   stress  (Ry/bohr**3)                   (kbar)     P=       -0.82
  -0.00000555   0.00000000   0.00000000           -0.82        0.00        0.00
   0.00000000  -0.00000555   0.00000000            0.00       -0.82        0.00
   0.00000000   0.00000000  -0.00000555            0.00        0.00       -0.82

     Message from routine punch:
     Nothing written, as per user request (disk_io='none')

     init_run     :      0.53s CPU      0.57s WALL (       2 calls)
     electrons    :      7.88s CPU      9.11s WALL (       6 calls)
     update_pot   :      0.03s CPU      0.03s WALL (       4 calls)
     forces       :      0.16s CPU      0.17s WALL (       6 calls)
     stress       :      0.89s CPU      0.90s WALL (       6 calls)

     Called by init_run:
     wfcinit      :      0.09s CPU      0.10s WALL (       2 calls)
     potinit      :      0.14s CPU      0.14s WALL (       2 calls)
     hinit0       :      0.28s CPU      0.28s WALL (       2 calls)

     Called by electrons:
     c_bands      :      5.40s CPU      6.38s WALL (      54 calls)
     sum_band     :      1.61s CPU      1.81s WALL (      54 calls)
     v_of_rho     :      0.38s CPU      0.39s WALL (      58 calls)
     newd         :      0.52s CPU      0.56s WALL (      58 calls)
     mix_rho      :      0.03s CPU      0.03s WALL (      54 calls)

     Called by c_bands:
     init_us_2    :      0.18s CPU      0.22s WALL (    8540 calls)
     cegterg      :      5.01s CPU      5.91s WALL (    3780 calls)

     Called by *egterg:
     cdiaghg      :      0.72s CPU      0.86s WALL (   13191 calls)
     h_psi        :      3.62s CPU      4.26s WALL (   13751 calls)
     s_psi        :      0.06s CPU      0.08s WALL (   13751 calls)
     g_psi        :      0.03s CPU      0.03s WALL (    9831 calls)

     Called by h_psi:
     h_psi:calbec :      0.20s CPU      0.23s WALL (   13751 calls)
     vloc_psi     :      3.28s CPU      3.86s WALL (   13751 calls)
     add_vuspsi   :      0.07s CPU      0.09s WALL (   13751 calls)

     General routines
     calbec       :      0.32s CPU      0.37s WALL (   24671 calls)
     fft          :      0.19s CPU      0.20s WALL (    1686 calls)
     ffts         :      0.11s CPU      0.12s WALL (     224 calls)
     fftw         :      3.18s CPU      3.75s WALL (  191028 calls)
     interpolate  :      0.12s CPU      0.13s WALL (     116 calls)

     Parallel routines

     PWSCF        :      9.64s CPU     10.94s WALL


   This run was terminated on:  17:55:43  20Oct2025            

=------------------------------------------------------------------------------=
   JOB DONE.
=------------------------------------------------------------------------------=
