
     Program PWSCF v.7.4.1 starts on 20Oct2025 at 17:50:54 

     This program is part of the open-source Quantum ESPRESSO suite
     for quantum simulation of materials; please cite
         "P. Giannozzi et al., J. Phys.:Condens. Matter 21 395502 (2009);
         "P. Giannozzi et al., J. Phys.:Condens. Matter 29 465901 (2017);
         "P. Giannozzi et al., J. Chem. Phys. 152 154105 (2020);
          URL http://www.quantum-espresso.org", 
     in publications or presentations arising from this work. More details at
     http://www.quantum-espresso.org/quote

     Parallel version (MPI), running on     2 processors

     MPI processes distributed on     1 nodes
     414 MiB available memory on the printing compute node when the environment starts

     Waiting for input...
     Reading input from standard input

     Current dimensions of program PWSCF are:
     Max number of different atomic species (ntypx) = 10
     Max number of k-points (npk) =  40000
     Max angular momentum in pseudopotentials (lmaxx) =  4
     file Fe.pbe-nd-rrkjus.UPF: wavefunction(s)  4S renormalized
     Message from routine find_sym:
     Not a group! Trying with lower acceptance parameter...
     Message from routine find_sym:
     Symmetry operations form a group
     Message from routine setup:
     using ibrav=0 with symmetry is DISCOURAGED, use correct ibrav instead

     R & G space division:  proc/nbgrp/npool/nimage =       2
     Subspace diagonalization in iterative solution of the eigenvalue problem:
     a serial algorithm will be used


     Parallelization info
     --------------------
     sticks:   dense  smooth     PW     G-vecs:    dense   smooth      PW
     Min         273     105     36                 7823     1983     373
     Max         274     106     37                 7826     1986     374
     Sum         547     211     73                15649     3969     747

     Using Slab Decomposition



     bravais-lattice index     =            0
     lattice parameter (alat)  =       5.1023  a.u.
     unit-cell volume          =     178.9386 (a.u.)^3
     number of atoms/cell      =            2
     number of atomic types    =            1
     number of electrons       =        16.00
     number of Kohn-Sham states=           12
     kinetic-energy cutoff     =      30.0000  Ry
     charge density cutoff     =     300.0000  Ry
     scf convergence threshold =      1.0E-07
     mixing beta               =       0.5000
     number of iterations used =            8  plain     mixing
     energy convergence thresh.=      1.0E-04
     force convergence thresh. =      1.0E-03
     press convergence thresh. =      5.0E-01
     Exchange-correlation=  SLA  PW   PBE  PBE
                           (   1   4   3   4   0   0   0)
     nstep                     =           50


     celldm(1)=   5.102261  celldm(2)=   0.000000  celldm(3)=   0.000000
     celldm(4)=   0.000000  celldm(5)=   0.000000  celldm(6)=   0.000000

     crystal axes: (cart. coord. in units of alat)
               a(1) = (   1.000000   0.000000   0.000000 )  
               a(2) = (  -0.500000   0.866025   0.000000 )  
               a(3) = (   0.000000   0.000000   1.555556 )  

     reciprocal axes: (cart. coord. in units 2 pi/alat)
               b(1) = (  1.000000  0.577350 -0.000000 )  
               b(2) = (  0.000000  1.154701  0.000000 )  
               b(3) = (  0.000000 -0.000000  0.642857 )  


     PseudoPot. # 1 for Fe read from file:
     /home/bond/Software/QE/qe-7.4.1/pseudo/Fe.pbe-nd-rrkjus.UPF
     MD5 check sum: 398036227a04b607635f6f5e8dfd8242
     Pseudo is Ultrasoft + core correction, Zval =  8.0
     Generated by new atomic code, or converted to UPF format
     Using radial grid of  957 points,  6 beta functions with: 
                l(1) =   0
                l(2) =   0
                l(3) =   1
                l(4) =   1
                l(5) =   2
                l(6) =   2
     Q(r) pseudized with 0 coefficients 


     atomic species   valence    mass     pseudopotential
     Fe                8.00    55.84500     Fe( 1.00)

     Starting magnetic structure 
     atomic species   magnetization
     Fe              0.700

      4 Sym. Ops. (no inversion) found



   Cartesian axes

     site n.     atom                  positions (alat units)
         1        Fe     tau(   1) = (   0.0000000   0.0000000   0.0000000  )
         2        Fe     tau(   2) = (   0.0000000   0.5773519   0.7777778  )

     number of k points=     4  Methfessel-Paxton smearing, width (Ry)=  0.0200
                       cart. coord. in units 2pi/alat
        k(    1) = (   0.0000000   0.0000000   0.0000000), wk =   0.1111111
        k(    2) = (   0.0000000   0.3849002   0.0000000), wk =   0.2222222
        k(    3) = (   0.3333333   0.5773503   0.0000000), wk =   0.2222222
        k(    4) = (   0.3333333  -0.1924501   0.0000000), wk =   0.4444444

     Dense  grid:    15649 G-vectors     FFT dimensions: (  30,  30,  45)

     Smooth grid:     3969 G-vectors     FFT dimensions: (  18,  18,  27)

     Estimated max dynamical RAM per process >      35.32 MB

     Estimated total dynamical RAM >      70.63 MB

     Check: negative core charge=   -0.000008
     Generating pointlists ...
     new r_m :   0.3996 (alat units)  2.0387 (a.u.) for type    1

     Initial potential from superposition of free atoms

     starting charge      15.9987, renormalised to      16.0000
     Starting wfcs are   12 randomized atomic wfcs

     total cpu time spent up to now is        0.8 secs

     Self-consistent Calculation

     iteration #  1     ecut=    30.00 Ry     beta= 0.50
     Davidson diagonalization with overlap
     ethr =  1.00E-02,  avg # of iterations =  4.4

     total cpu time spent up to now is        0.9 secs

     total energy              =    -111.44184747 Ry
     estimated scf accuracy    <       0.46644690 Ry

     total magnetization       =     5.54 Bohr mag/cell
     absolute magnetization    =     5.58 Bohr mag/cell

     iteration #  2     ecut=    30.00 Ry     beta= 0.50
     Davidson diagonalization with overlap
     ethr =  2.92E-03,  avg # of iterations =  2.2

     total cpu time spent up to now is        1.1 secs

     total energy              =    -111.57776940 Ry
     estimated scf accuracy    <       0.04157711 Ry

     total magnetization       =     5.56 Bohr mag/cell
     absolute magnetization    =     5.67 Bohr mag/cell

     iteration #  3     ecut=    30.00 Ry     beta= 0.50
     Davidson diagonalization with overlap
     ethr =  2.60E-04,  avg # of iterations =  2.8

     total cpu time spent up to now is        1.3 secs

     total energy              =    -111.59820348 Ry
     estimated scf accuracy    <       0.01024266 Ry

     total magnetization       =     5.56 Bohr mag/cell
     absolute magnetization    =     5.73 Bohr mag/cell

     iteration #  4     ecut=    30.00 Ry     beta= 0.50
     Davidson diagonalization with overlap
     ethr =  6.40E-05,  avg # of iterations =  5.4

     total cpu time spent up to now is        1.5 secs

     total energy              =    -111.58914779 Ry
     estimated scf accuracy    <       0.28025663 Ry

     total magnetization       =     5.77 Bohr mag/cell
     absolute magnetization    =     5.92 Bohr mag/cell

     iteration #  5     ecut=    30.00 Ry     beta= 0.50
     Davidson diagonalization with overlap
     ethr =  6.40E-05,  avg # of iterations =  2.6

     total cpu time spent up to now is        1.6 secs

     total energy              =    -111.60265047 Ry
     estimated scf accuracy    <       0.00445818 Ry

     total magnetization       =     5.75 Bohr mag/cell
     absolute magnetization    =     5.94 Bohr mag/cell

     iteration #  6     ecut=    30.00 Ry     beta= 0.50
     Davidson diagonalization with overlap
     ethr =  2.79E-05,  avg # of iterations =  1.8

     total cpu time spent up to now is        1.8 secs

     total energy              =    -111.60324747 Ry
     estimated scf accuracy    <       0.00058539 Ry

     total magnetization       =     5.72 Bohr mag/cell
     absolute magnetization    =     5.91 Bohr mag/cell

     iteration #  7     ecut=    30.00 Ry     beta= 0.50
     Davidson diagonalization with overlap
     ethr =  3.66E-06,  avg # of iterations =  6.2

     total cpu time spent up to now is        2.0 secs

     total energy              =    -111.60361312 Ry
     estimated scf accuracy    <       0.00023732 Ry

     total magnetization       =     5.68 Bohr mag/cell
     absolute magnetization    =     5.92 Bohr mag/cell

     iteration #  8     ecut=    30.00 Ry     beta= 0.50
     Davidson diagonalization with overlap
     ethr =  1.48E-06,  avg # of iterations =  1.9

     total cpu time spent up to now is        2.2 secs

     total energy              =    -111.60367458 Ry
     estimated scf accuracy    <       0.00008035 Ry

     total magnetization       =     5.67 Bohr mag/cell
     absolute magnetization    =     5.93 Bohr mag/cell

     iteration #  9     ecut=    30.00 Ry     beta= 0.50
     Davidson diagonalization with overlap
     ethr =  5.02E-07,  avg # of iterations =  3.2

     total cpu time spent up to now is        2.4 secs

     total energy              =    -111.60371391 Ry
     estimated scf accuracy    <       0.00000372 Ry

     total magnetization       =     5.65 Bohr mag/cell
     absolute magnetization    =     5.95 Bohr mag/cell

     iteration # 10     ecut=    30.00 Ry     beta= 0.50
     Davidson diagonalization with overlap
     ethr =  2.32E-08,  avg # of iterations =  7.5

     total cpu time spent up to now is        2.6 secs

     total energy              =    -111.60379464 Ry
     estimated scf accuracy    <       0.00002254 Ry

     total magnetization       =     5.62 Bohr mag/cell
     absolute magnetization    =     5.96 Bohr mag/cell

     iteration # 11     ecut=    30.00 Ry     beta= 0.50
     Davidson diagonalization with overlap
     ethr =  2.32E-08,  avg # of iterations =  3.6

     total cpu time spent up to now is        2.8 secs

     total energy              =    -111.60380307 Ry
     estimated scf accuracy    <       0.00000029 Ry

     total magnetization       =     5.61 Bohr mag/cell
     absolute magnetization    =     5.97 Bohr mag/cell

     iteration # 12     ecut=    30.00 Ry     beta= 0.50
     Davidson diagonalization with overlap
     ethr =  1.83E-09,  avg # of iterations =  4.8

     total cpu time spent up to now is        3.0 secs

     total energy              =    -111.60380331 Ry
     estimated scf accuracy    <       0.00000069 Ry

     total magnetization       =     5.61 Bohr mag/cell
     absolute magnetization    =     5.97 Bohr mag/cell

     iteration # 13     ecut=    30.00 Ry     beta= 0.50
     Davidson diagonalization with overlap
     ethr =  1.83E-09,  avg # of iterations =  3.6

     Magnetic moment per site  (integrated on atomic sphere of radius R)
     atom   1 (R=0.400)  charge=  6.6409  magn=  2.8683
     atom   2 (R=0.400)  charge=  6.6404  magn=  2.8681

     total cpu time spent up to now is        3.1 secs

     End of self-consistent calculation

 ------ SPIN UP ------------


          k = 0.0000 0.0000 0.0000 (   523 PWs)   bands (ev):

     3.4464   6.6993   8.7137   8.7137   9.0082   9.0082   9.1152   9.6187
     9.6189  10.6926  10.6927  11.8941

          k = 0.0000 0.3849 0.0000 (   488 PWs)   bands (ev):

     6.1900   7.2667   7.9968   8.3575   9.0647   9.0681   9.4524   9.8387
     9.9841  10.2509  10.8999  17.3125

          k = 0.3333 0.5774 0.0000 (   492 PWs)   bands (ev):

     7.6721   7.7265   7.7266   7.8750   8.9756   8.9756   9.3532  10.3316
    10.3316  10.8102  14.9067  15.4439

          k = 0.3333-0.1925 0.0000 (   488 PWs)   bands (ev):

     6.1900   7.2667   7.9969   8.3576   9.0646   9.0681   9.4525   9.8387
     9.9840  10.2510  10.8998  17.3126

 ------ SPIN DOWN ----------


          k = 0.0000 0.0000 0.0000 (   523 PWs)   bands (ev):

     3.6174   8.7027  11.7363  11.8872  11.8873  12.2780  12.2953  12.2954
    12.3840  12.3840  13.6632  13.6632

          k = 0.0000 0.3849 0.0000 (   488 PWs)   bands (ev):

     6.6130   9.7389   9.8282  10.5696  11.6659  11.8317  12.0693  13.2997
    13.4785  13.5811  13.9373  18.3674

          k = 0.3333 0.5774 0.0000 (   492 PWs)   bands (ev):

     9.6464   9.6465   9.7172   9.8492  11.3060  11.3061  12.5833  13.8232
    13.8373  13.8373  16.6032  17.1086

          k = 0.3333-0.1925 0.0000 (   488 PWs)   bands (ev):

     6.6130   9.7388   9.8282  10.5696  11.6659  11.8316  12.0693  13.2997
    13.4785  13.5812  13.9373  18.3674

     the Fermi energy is    11.8030 ev

!    total energy              =    -111.60380439 Ry
     estimated scf accuracy    <       0.00000003 Ry
     smearing contrib. (-TS)   =      -0.00229638 Ry
     internal energy E=F+TS    =    -111.60150801 Ry

     The total energy is F=E-TS. E is the sum of the following terms:
     one-electron contribution =       8.99277952 Ry
     hartree contribution      =      14.95858397 Ry
     xc contribution           =     -52.92450745 Ry
     ewald contribution        =     -82.62836405 Ry

     total magnetization       =     5.61 Bohr mag/cell
     absolute magnetization    =     5.97 Bohr mag/cell

     convergence has been achieved in  13 iterations

     Forces acting on atoms (cartesian axes, Ry/au):

     atom    1 type  1   force =     0.00000000   -0.00000621    0.00000000
     atom    2 type  1   force =     0.00000000    0.00000621    0.00000000

     Total force =     0.000009     Total SCF correction =     0.000007
     SCF correction compared to forces is large: reduce conv_thr to get better values


     Computing stress (Cartesian axis) and pressure

          total   stress  (Ry/bohr**3)                   (kbar)     P=     -115.99
  -0.00012327   0.00000000   0.00000000          -18.13        0.00        0.00
   0.00000000  -0.00012334   0.00000000            0.00      -18.14        0.00
   0.00000000   0.00000000  -0.00211889            0.00        0.00     -311.70


     BFGS Geometry Optimization
     Energy error            =      2.1E-02 Ry
     Gradient error          =      6.2E-06 Ry/Bohr
     Cell gradient error     =      3.1E+02 kbar

     number of scf cycles    =   1
     number of bfgs steps    =   0

     enthalpy           new  =    -111.6038043916 Ry

     new trust radius        =       0.1417194801 bohr
     new conv_thr            =       0.0000001000 Ry

     new unit-cell volume =    168.41666 a.u.^3 (    24.95677 Ang^3 )
     density =      7.43147 g/cm^3

CELL_PARAMETERS (angstrom)
   2.691678970   0.000000000   0.000000000
  -1.345839485   2.331058306   0.000000000
   0.000000000   0.000000000   3.977517006

ATOMIC_POSITIONS (angstrom)
Fe               0.0000000000       -0.0000032780        0.0000000000
Fe               0.0000000000        1.5540464090        1.9887585032


     Message from routine punch:
     Nothing written, as per user request (disk_io='none')
     NEW-OLD atomic charge density approx. for the potential
     New effective cutoffs (rho, wfc):  326.47   32.16

     Check: negative core charge=   -0.000005
     Generating pointlists ...
     new r_m :   0.3856 (alat units)  1.9674 (a.u.) for type    1

     total cpu time spent up to now is        3.5 secs

     Self-consistent Calculation

     iteration #  1     ecut=    30.00 Ry     beta= 0.50
     Davidson diagonalization with overlap
     ethr =  1.00E-06,  avg # of iterations =  7.5

     total cpu time spent up to now is        3.8 secs

     total energy              =    -111.62392029 Ry
     estimated scf accuracy    <       0.00234679 Ry

     total magnetization       =     5.56 Bohr mag/cell
     absolute magnetization    =     5.83 Bohr mag/cell

     iteration #  2     ecut=    30.00 Ry     beta= 0.50
     Davidson diagonalization with overlap
     ethr =  1.47E-05,  avg # of iterations =  2.6

     total cpu time spent up to now is        3.9 secs

     total energy              =    -111.62460408 Ry
     estimated scf accuracy    <       0.00043144 Ry

     total magnetization       =     5.56 Bohr mag/cell
     absolute magnetization    =     5.82 Bohr mag/cell

     iteration #  3     ecut=    30.00 Ry     beta= 0.50
     Davidson diagonalization with overlap
     ethr =  2.70E-06,  avg # of iterations =  1.9

     total cpu time spent up to now is        4.1 secs

     total energy              =    -111.62447008 Ry
     estimated scf accuracy    <       0.00291147 Ry

     total magnetization       =     5.56 Bohr mag/cell
     absolute magnetization    =     5.81 Bohr mag/cell

     iteration #  4     ecut=    30.00 Ry     beta= 0.50
     Davidson diagonalization with overlap
     ethr =  2.70E-06,  avg # of iterations =  1.5

     total cpu time spent up to now is        4.3 secs

     total energy              =    -111.62475511 Ry
     estimated scf accuracy    <       0.00021243 Ry

     total magnetization       =     5.56 Bohr mag/cell
     absolute magnetization    =     5.81 Bohr mag/cell

     iteration #  5     ecut=    30.00 Ry     beta= 0.50
     Davidson diagonalization with overlap
     ethr =  1.33E-06,  avg # of iterations =  2.1

     total cpu time spent up to now is        4.5 secs

     total energy              =    -111.62478018 Ry
     estimated scf accuracy    <       0.00002916 Ry

     total magnetization       =     5.56 Bohr mag/cell
     absolute magnetization    =     5.80 Bohr mag/cell

     iteration #  6     ecut=    30.00 Ry     beta= 0.50
     Davidson diagonalization with overlap
     ethr =  1.82E-07,  avg # of iterations =  2.8

     total cpu time spent up to now is        4.7 secs

     total energy              =    -111.62479139 Ry
     estimated scf accuracy    <       0.00000300 Ry

     total magnetization       =     5.56 Bohr mag/cell
     absolute magnetization    =     5.80 Bohr mag/cell

     iteration #  7     ecut=    30.00 Ry     beta= 0.50
     Davidson diagonalization with overlap
     ethr =  1.88E-08,  avg # of iterations =  4.2

     total cpu time spent up to now is        4.9 secs

     total energy              =    -111.62479268 Ry
     estimated scf accuracy    <       0.00000028 Ry

     total magnetization       =     5.56 Bohr mag/cell
     absolute magnetization    =     5.79 Bohr mag/cell

     iteration #  8     ecut=    30.00 Ry     beta= 0.50
     Davidson diagonalization with overlap
     ethr =  1.73E-09,  avg # of iterations =  4.4

     Magnetic moment per site  (integrated on atomic sphere of radius R)
     atom   1 (R=0.386)  charge=  6.5442  magn=  2.8046
     atom   2 (R=0.386)  charge=  6.5454  magn=  2.8044

     total cpu time spent up to now is        5.1 secs

     End of self-consistent calculation

 ------ SPIN UP ------------


          k = 0.0000 0.0000 0.0000 (   523 PWs)   bands (ev):

     4.0473   7.5190   9.7009   9.7009  10.0930  10.0930  10.3980  10.5107
    10.5108  11.9000  11.9001  13.3582

          k = 0.0000 0.3861 0.0000 (   488 PWs)   bands (ev):

     6.8460   8.0735   8.8897   9.1666   9.8836  10.2426  10.5687  10.8868
    11.0947  11.4830  12.1936  18.9959

          k = 0.3344 0.5791 0.0000 (   492 PWs)   bands (ev):

     8.4091   8.4767   8.4768   8.6814   9.9780   9.9780  10.5521  11.5738
    11.5738  12.1881  15.7886  16.4017

          k = 0.3344-0.1930 0.0000 (   488 PWs)   bands (ev):

     6.8460   8.0735   8.8897   9.1666   9.8836  10.2426  10.5687  10.8868
    11.0947  11.4830  12.1936  18.9959

 ------ SPIN DOWN ----------


          k = 0.0000 0.0000 0.0000 (   523 PWs)   bands (ev):

     4.2932   9.5087  12.7727  12.7727  13.1934  13.1935  13.3000  13.3000
    13.3435  13.5316  14.8061  14.8061

          k = 0.0000 0.3861 0.0000 (   488 PWs)   bands (ev):

     7.3115  10.4455  10.7596  11.2880  12.4049  12.8974  13.2104  14.2561
    14.5025  14.7867  15.1813  20.1122

          k = 0.3344 0.5791 0.0000 (   492 PWs)   bands (ev):

    10.3164  10.3165  10.4179  10.5438  12.2776  12.2778  13.7487  15.0312
    15.0312  15.1707  17.5832  18.1230

          k = 0.3344-0.1930 0.0000 (   488 PWs)   bands (ev):

     7.3115  10.4456  10.7596  11.2879  12.4049  12.8973  13.2104  14.2561
    14.5025  14.7867  15.1813  20.1122

     the Fermi energy is    12.8293 ev

!    total energy              =    -111.62479290 Ry
     estimated scf accuracy    <       0.00000009 Ry
     smearing contrib. (-TS)   =       0.00010349 Ry
     internal energy E=F+TS    =    -111.62489639 Ry

     The total energy is F=E-TS. E is the sum of the following terms:
     one-electron contribution =      11.16018797 Ry
     hartree contribution      =      14.48188165 Ry
     xc contribution           =     -53.03256141 Ry
     ewald contribution        =     -84.23440460 Ry

     total magnetization       =     5.56 Bohr mag/cell
     absolute magnetization    =     5.79 Bohr mag/cell

     convergence has been achieved in   8 iterations

     Forces acting on atoms (cartesian axes, Ry/au):

     atom    1 type  1   force =     0.00000000    0.00000312    0.00000000
     atom    2 type  1   force =     0.00000000   -0.00000312    0.00000000

     Total force =     0.000004     Total SCF correction =     0.000009
     SCF correction compared to forces is large: reduce conv_thr to get better values


     Computing stress (Cartesian axis) and pressure

          total   stress  (Ry/bohr**3)                   (kbar)     P=      -46.29
   0.00048414   0.00000000   0.00000000           71.22        0.00        0.00
   0.00000000   0.00048407   0.00000000            0.00       71.21        0.00
   0.00000000   0.00000000  -0.00191231            0.00        0.00     -281.31

     Energy error            =      2.1E-02 Ry
     Gradient error          =      3.1E-06 Ry/Bohr
     Cell gradient error     =      2.8E+02 kbar

     number of scf cycles    =   2
     number of bfgs steps    =   1

     enthalpy           old  =    -111.6038043916 Ry
     enthalpy           new  =    -111.6247928999 Ry

     CASE: enthalpy          _new < enthalpy          _old


     WARNING: bfgs curvature condition failed, Theta= 0.924
     new trust radius        =       0.1596981839 bohr
     new conv_thr            =       0.0000000010 Ry

     new unit-cell volume =    159.50200 a.u.^3 (    23.63576 Ang^3 )
     density =      7.84682 g/cm^3

CELL_PARAMETERS (angstrom)
   2.703981604   0.000000000   0.000000000
  -1.351990802   2.341708010   0.000000000
   0.000000000   0.000000000   3.732785713

ATOMIC_POSITIONS (angstrom)
Fe               0.0000000000       -0.0000043383        0.0000000000
Fe               0.0000000000        1.5611472914        1.8663928567


     Message from routine punch:
     Nothing written, as per user request (disk_io='none')
     NEW-OLD atomic charge density approx. for the potential
     New effective cutoffs (rho, wfc):  368.04   35.51

     Check: negative core charge=   -0.000004
     Generating pointlists ...
     new r_m :   0.3717 (alat units)  1.8967 (a.u.) for type    1

     total cpu time spent up to now is        5.8 secs

     Self-consistent Calculation

     iteration #  1     ecut=    30.00 Ry     beta= 0.50
     Davidson diagonalization with overlap
     ethr =  1.00E-06,  avg # of iterations =  9.9

     total cpu time spent up to now is        6.0 secs

     total energy              =    -111.63965218 Ry
     estimated scf accuracy    <       0.00084499 Ry

     total magnetization       =     5.60 Bohr mag/cell
     absolute magnetization    =     5.79 Bohr mag/cell

     iteration #  2     ecut=    30.00 Ry     beta= 0.50
     Davidson diagonalization with overlap
     ethr =  5.28E-06,  avg # of iterations =  2.0

     total cpu time spent up to now is        6.1 secs

     total energy              =    -111.63982898 Ry
     estimated scf accuracy    <       0.00029056 Ry

     total magnetization       =     5.60 Bohr mag/cell
     absolute magnetization    =     5.78 Bohr mag/cell

     iteration #  3     ecut=    30.00 Ry     beta= 0.50
     Davidson diagonalization with overlap
     ethr =  1.82E-06,  avg # of iterations =  2.5

     total cpu time spent up to now is        6.3 secs

     total energy              =    -111.63969843 Ry
     estimated scf accuracy    <       0.00392804 Ry

     total magnetization       =     5.60 Bohr mag/cell
     absolute magnetization    =     5.78 Bohr mag/cell

     iteration #  4     ecut=    30.00 Ry     beta= 0.50
     Davidson diagonalization with overlap
     ethr =  1.82E-06,  avg # of iterations =  1.8

     total cpu time spent up to now is        6.4 secs

     total energy              =    -111.63998659 Ry
     estimated scf accuracy    <       0.00004101 Ry

     total magnetization       =     5.60 Bohr mag/cell
     absolute magnetization    =     5.77 Bohr mag/cell

     iteration #  5     ecut=    30.00 Ry     beta= 0.50
     Davidson diagonalization with overlap
     ethr =  2.56E-07,  avg # of iterations =  2.4

     total cpu time spent up to now is        6.5 secs

     total energy              =    -111.63999504 Ry
     estimated scf accuracy    <       0.00001356 Ry

     total magnetization       =     5.60 Bohr mag/cell
     absolute magnetization    =     5.77 Bohr mag/cell

     iteration #  6     ecut=    30.00 Ry     beta= 0.50
     Davidson diagonalization with overlap
     ethr =  8.47E-08,  avg # of iterations =  2.9

     total cpu time spent up to now is        6.7 secs

     total energy              =    -111.63999920 Ry
     estimated scf accuracy    <       0.00000368 Ry

     total magnetization       =     5.60 Bohr mag/cell
     absolute magnetization    =     5.77 Bohr mag/cell

     iteration #  7     ecut=    30.00 Ry     beta= 0.50
     Davidson diagonalization with overlap
     ethr =  2.30E-08,  avg # of iterations =  3.2

     total cpu time spent up to now is        6.8 secs

     total energy              =    -111.63999995 Ry
     estimated scf accuracy    <       0.00000016 Ry

     total magnetization       =     5.60 Bohr mag/cell
     absolute magnetization    =     5.77 Bohr mag/cell

     iteration #  8     ecut=    30.00 Ry     beta= 0.50
     Davidson diagonalization with overlap
     ethr =  1.03E-09,  avg # of iterations =  5.4

     total cpu time spent up to now is        6.9 secs

     total energy              =    -111.64000020 Ry
     estimated scf accuracy    <       0.00000002 Ry

     total magnetization       =     5.60 Bohr mag/cell
     absolute magnetization    =     5.77 Bohr mag/cell

     iteration #  9     ecut=    30.00 Ry     beta= 0.50
     Davidson diagonalization with overlap
     ethr =  1.02E-10,  avg # of iterations =  4.6

     Magnetic moment per site  (integrated on atomic sphere of radius R)
     atom   1 (R=0.372)  charge=  6.4292  magn=  2.7961
     atom   2 (R=0.372)  charge=  6.4298  magn=  2.7961

     total cpu time spent up to now is        7.1 secs

     End of self-consistent calculation

 ------ SPIN UP ------------


          k = 0.0000 0.0000 0.0000 (   523 PWs)   bands (ev):

     4.6456   8.2032  10.4984  10.4985  11.0195  11.0195  11.1335  11.1335
    11.6557  12.9296  12.9297  15.1630

          k = 0.0000 0.3843 0.0000 (   488 PWs)   bands (ev):

     7.4412   8.7048   9.6708   9.8071  10.4511  11.3443  11.5878  11.7033
    12.0113  12.5937  13.3285  19.9693

          k = 0.3328 0.5765 0.0000 (   492 PWs)   bands (ev):

     8.9853   9.0598   9.0598   9.3279  10.8482  10.8484  11.6510  12.6633
    12.6633  13.4409  16.4561  17.1229

          k = 0.3328-0.1922 0.0000 (   488 PWs)   bands (ev):

     7.4412   8.7048   9.6709   9.8071  10.4511  11.3442  11.5878  11.7033
    12.0113  12.5937  13.3285  19.9693

 ------ SPIN DOWN ----------


          k = 0.0000 0.0000 0.0000 (   523 PWs)   bands (ev):

     4.9421  10.1880  13.5078  13.5079  13.8410  13.8411  14.1966  14.1966
    14.7963  15.2694  15.8874  15.8875

          k = 0.0000 0.3843 0.0000 (   488 PWs)   bands (ev):

     7.9416  10.9982  11.6920  11.8666  12.9992  13.9890  14.3164  15.0285
    15.3822  15.9141  16.3882  21.9952

          k = 0.3328 0.5765 0.0000 (   492 PWs)   bands (ev):

    10.8584  10.8585  11.0643  11.1069  13.2357  13.2357  14.8787  16.1140
    16.1140  16.5187  18.3235  18.8796

          k = 0.3328-0.1922 0.0000 (   488 PWs)   bands (ev):

     7.9416  10.9982  11.6920  11.8666  12.9992  13.9889  14.3163  15.0285
    15.3822  15.9141  16.3882  21.9952

     the Fermi energy is    13.7881 ev

!    total energy              =    -111.64000021 Ry
     estimated scf accuracy    <          6.5E-10 Ry
     smearing contrib. (-TS)   =       0.00124036 Ry
     internal energy E=F+TS    =    -111.64124057 Ry

     The total energy is F=E-TS. E is the sum of the following terms:
     one-electron contribution =      13.01745873 Ry
     hartree contribution      =      14.08514058 Ry
     xc contribution           =     -53.13992437 Ry
     ewald contribution        =     -85.60391551 Ry

     total magnetization       =     5.60 Bohr mag/cell
     absolute magnetization    =     5.77 Bohr mag/cell

     convergence has been achieved in   9 iterations

     Forces acting on atoms (cartesian axes, Ry/au):

     atom    1 type  1   force =     0.00000000   -0.00000100    0.00000000
     atom    2 type  1   force =     0.00000000    0.00000100    0.00000000

     Total force =     0.000001     Total SCF correction =     0.000003
     SCF correction compared to forces is large: reduce conv_thr to get better values


     Computing stress (Cartesian axis) and pressure

          total   stress  (Ry/bohr**3)                   (kbar)     P=       51.12
   0.00093841   0.00000000   0.00000000          138.05        0.00        0.00
   0.00000000   0.00093838  -0.00000000            0.00      138.04       -0.00
   0.00000000  -0.00000000  -0.00083418            0.00       -0.00     -122.71

     Energy error            =      1.5E-02 Ry
     Gradient error          =      1.0E-06 Ry/Bohr
     Cell gradient error     =      1.4E+02 kbar

     number of scf cycles    =   3
     number of bfgs steps    =   2

     enthalpy           old  =    -111.6247928999 Ry
     enthalpy           new  =    -111.6400002114 Ry

     CASE: enthalpy          _new < enthalpy          _old

     new trust radius        =       0.1930105711 bohr
     new conv_thr            =       0.0000000010 Ry

     new unit-cell volume =    153.56029 a.u.^3 (    22.75529 Ang^3 )
     density =      8.15044 g/cm^3

CELL_PARAMETERS (angstrom)
   2.760715525   0.000000000   0.000000000
  -1.380357763   2.390836382  -0.000000000
   0.000000000  -0.000000000   3.447551845

ATOMIC_POSITIONS (angstrom)
Fe               0.0000000000       -0.0000132901        0.0000000000
Fe               0.0000000000        1.5939085807        1.7237759225


     Message from routine punch:
     Nothing written, as per user request (disk_io='none')
     NEW-OLD atomic charge density approx. for the potential
     New effective cutoffs (rho, wfc):  427.59   40.15

     Check: negative core charge=   -0.000004
     Generating pointlists ...
     new r_m :   0.3587 (alat units)  1.8301 (a.u.) for type    1

     total cpu time spent up to now is        7.4 secs

     Self-consistent Calculation

     iteration #  1     ecut=    30.00 Ry     beta= 0.50
     Davidson diagonalization with overlap
     ethr =  1.00E-06,  avg # of iterations =  9.6

     total cpu time spent up to now is        7.6 secs

     total energy              =    -111.65163942 Ry
     estimated scf accuracy    <       0.00334355 Ry

     total magnetization       =     5.33 Bohr mag/cell
     absolute magnetization    =     5.49 Bohr mag/cell

     iteration #  2     ecut=    30.00 Ry     beta= 0.50
     Davidson diagonalization with overlap
     ethr =  2.09E-05,  avg # of iterations =  1.0

     total cpu time spent up to now is        7.8 secs

     total energy              =    -111.65186706 Ry
     estimated scf accuracy    <       0.00057845 Ry

     total magnetization       =     5.37 Bohr mag/cell
     absolute magnetization    =     5.52 Bohr mag/cell

     iteration #  3     ecut=    30.00 Ry     beta= 0.50
     Davidson diagonalization with overlap
     ethr =  3.62E-06,  avg # of iterations =  1.9

     total cpu time spent up to now is        7.9 secs

     total energy              =    -111.65198532 Ry
     estimated scf accuracy    <       0.00007700 Ry

     total magnetization       =     5.34 Bohr mag/cell
     absolute magnetization    =     5.49 Bohr mag/cell

     iteration #  4     ecut=    30.00 Ry     beta= 0.50
     Davidson diagonalization with overlap
     ethr =  4.81E-07,  avg # of iterations =  2.5

     total cpu time spent up to now is        8.0 secs

     total energy              =    -111.65199576 Ry
     estimated scf accuracy    <       0.00006465 Ry

     total magnetization       =     5.34 Bohr mag/cell
     absolute magnetization    =     5.48 Bohr mag/cell

     iteration #  5     ecut=    30.00 Ry     beta= 0.50
     Davidson diagonalization with overlap
     ethr =  4.04E-07,  avg # of iterations =  1.2

     total cpu time spent up to now is        8.1 secs

     total energy              =    -111.65201669 Ry
     estimated scf accuracy    <       0.00006658 Ry

     total magnetization       =     5.34 Bohr mag/cell
     absolute magnetization    =     5.48 Bohr mag/cell

     iteration #  6     ecut=    30.00 Ry     beta= 0.50
     Davidson diagonalization with overlap
     ethr =  4.04E-07,  avg # of iterations =  2.2

     total cpu time spent up to now is        8.3 secs

     total energy              =    -111.65202952 Ry
     estimated scf accuracy    <       0.00000578 Ry

     total magnetization       =     5.33 Bohr mag/cell
     absolute magnetization    =     5.47 Bohr mag/cell

     iteration #  7     ecut=    30.00 Ry     beta= 0.50
     Davidson diagonalization with overlap
     ethr =  3.61E-08,  avg # of iterations =  3.6

     total cpu time spent up to now is        8.4 secs

     total energy              =    -111.65203311 Ry
     estimated scf accuracy    <       0.00000372 Ry

     total magnetization       =     5.33 Bohr mag/cell
     absolute magnetization    =     5.47 Bohr mag/cell

     iteration #  8     ecut=    30.00 Ry     beta= 0.50
     Davidson diagonalization with overlap
     ethr =  2.32E-08,  avg # of iterations =  2.0

     total cpu time spent up to now is        8.5 secs

     total energy              =    -111.65203427 Ry
     estimated scf accuracy    <       0.00000084 Ry

     total magnetization       =     5.33 Bohr mag/cell
     absolute magnetization    =     5.46 Bohr mag/cell

     iteration #  9     ecut=    30.00 Ry     beta= 0.50
     Davidson diagonalization with overlap
     ethr =  5.26E-09,  avg # of iterations =  4.2

     total cpu time spent up to now is        8.6 secs

     total energy              =    -111.65203516 Ry
     estimated scf accuracy    <       0.00000010 Ry

     total magnetization       =     5.32 Bohr mag/cell
     absolute magnetization    =     5.46 Bohr mag/cell

     iteration # 10     ecut=    30.00 Ry     beta= 0.50
     Davidson diagonalization with overlap
     ethr =  6.15E-10,  avg # of iterations =  4.2

     total cpu time spent up to now is        8.8 secs

     total energy              =    -111.65203525 Ry
     estimated scf accuracy    <       0.00000001 Ry

     total magnetization       =     5.32 Bohr mag/cell
     absolute magnetization    =     5.46 Bohr mag/cell

     iteration # 11     ecut=    30.00 Ry     beta= 0.50
     Davidson diagonalization with overlap
     ethr =  8.48E-11,  avg # of iterations =  4.8

     total cpu time spent up to now is        8.9 secs

     total energy              =    -111.65203526 Ry
     estimated scf accuracy    <          5.9E-09 Ry

     total magnetization       =     5.32 Bohr mag/cell
     absolute magnetization    =     5.46 Bohr mag/cell

     iteration # 12     ecut=    30.00 Ry     beta= 0.50
     Davidson diagonalization with overlap
     ethr =  3.70E-11,  avg # of iterations =  2.0

     Magnetic moment per site  (integrated on atomic sphere of radius R)
     atom   1 (R=0.359)  charge=  6.3111  magn=  2.6371
     atom   2 (R=0.359)  charge=  6.3117  magn=  2.6371

     total cpu time spent up to now is        9.0 secs

     End of self-consistent calculation

 ------ SPIN UP ------------


          k = 0.0000 0.0000 0.0000 (   523 PWs)   bands (ev):

     5.1251   8.6480  10.9676  10.9678  11.5185  11.5186  11.6616  11.6616
    12.8465  13.8328  13.8330  17.5003

          k =-0.0000 0.3764 0.0000 (   488 PWs)   bands (ev):

     7.8446   9.0609  10.1618  10.4028  10.8190  12.1076  12.2404  12.5947
    12.5988  13.4630  14.3497  20.2458

          k = 0.3260 0.5647 0.0000 (   492 PWs)   bands (ev):

     9.3952   9.3952   9.4871   9.6543  11.6626  11.6626  12.5498  13.4431
    13.4431  14.6116  16.5850  17.2603

          k = 0.3260-0.1882-0.0000 (   488 PWs)   bands (ev):

     7.8446   9.0609  10.1618  10.4029  10.8190  12.1075  12.2404  12.5948
    12.5987  13.4630  14.3496  20.2457

 ------ SPIN DOWN ----------


          k = 0.0000 0.0000 0.0000 (   523 PWs)   bands (ev):

     5.4342  10.6126  13.8419  13.8420  13.9565  13.9567  14.7402  14.7403
    15.9221  16.5352  16.5354  17.6613

          k =-0.0000 0.3764 0.0000 (   488 PWs)   bands (ev):

     8.3272  11.2268  12.1151  12.3848  13.1239  14.8591  15.1734  15.3062
    15.8461  16.7457  17.1630  21.9047

          k = 0.3260 0.5647 0.0000 (   492 PWs)   bands (ev):

    11.0879  11.0879  11.3372  11.4411  13.9048  13.9048  15.7763  16.8076
    16.8076  17.4674  18.4238  18.9894

          k = 0.3260-0.1882-0.0000 (   488 PWs)   bands (ev):

     8.3272  11.2268  12.1150  12.3848  13.1241  14.8590  15.1734  15.3062
    15.8462  16.7458  17.1629  21.9045

     the Fermi energy is    14.5928 ev

!    total energy              =    -111.65203526 Ry
     estimated scf accuracy    <          1.7E-10 Ry
     smearing contrib. (-TS)   =       0.00059956 Ry
     internal energy E=F+TS    =    -111.65263482 Ry

     The total energy is F=E-TS. E is the sum of the following terms:
     one-electron contribution =      13.90400420 Ry
     hartree contribution      =      13.99245553 Ry
     xc contribution           =     -53.20086353 Ry
     ewald contribution        =     -86.34823102 Ry

     total magnetization       =     5.32 Bohr mag/cell
     absolute magnetization    =     5.45 Bohr mag/cell

     convergence has been achieved in  12 iterations

     Forces acting on atoms (cartesian axes, Ry/au):

     atom    1 type  1   force =    -0.00000000    0.00000974    0.00000000
     atom    2 type  1   force =     0.00000000   -0.00000974   -0.00000000

     Total force =     0.000014     Total SCF correction =     0.000003
     SCF correction compared to forces is large: reduce conv_thr to get better values


     Computing stress (Cartesian axis) and pressure

          total   stress  (Ry/bohr**3)                   (kbar)     P=      112.92
   0.00104017  -0.00000000  -0.00000000          153.01       -0.00       -0.00
  -0.00000000   0.00104015   0.00000000           -0.00      153.01        0.00
  -0.00000000   0.00000000   0.00022255           -0.00        0.00       32.74

     Energy error            =      1.2E-02 Ry
     Gradient error          =      9.7E-06 Ry/Bohr
     Cell gradient error     =      1.5E+02 kbar

     number of scf cycles    =   4
     number of bfgs steps    =   3

     enthalpy           old  =    -111.6400002114 Ry
     enthalpy           new  =    -111.6520352599 Ry

     CASE: enthalpy          _new < enthalpy          _old

     new trust radius        =       0.0632083456 bohr
     new conv_thr            =       0.0000000010 Ry

     new unit-cell volume =    155.51219 a.u.^3 (    23.04453 Ang^3 )
     density =      8.04814 g/cm^3

CELL_PARAMETERS (angstrom)
   2.814326773   0.000000000   0.000000000
  -1.407163387   2.437262782  -0.000000000
  -0.000000000  -0.000000000   3.359626157

ATOMIC_POSITIONS (angstrom)
Fe               0.0000000000       -0.0000130938        0.0000000000
Fe              -0.0000000000        1.6248594023        1.6798130787


     Message from routine punch:
     Nothing written, as per user request (disk_io='none')
     NEW-OLD atomic charge density approx. for the potential
     New effective cutoffs (rho, wfc):  448.68   41.67

     Check: negative core charge=   -0.000005
     Generating pointlists ...

     total cpu time spent up to now is        9.4 secs

     Self-consistent Calculation

     iteration #  1     ecut=    30.00 Ry     beta= 0.50
     Davidson diagonalization with overlap
     ethr =  1.00E-06,  avg # of iterations =  7.0

     total cpu time spent up to now is        9.6 secs

     total energy              =    -111.65562702 Ry
     estimated scf accuracy    <       0.00024806 Ry

     total magnetization       =     5.29 Bohr mag/cell
     absolute magnetization    =     5.42 Bohr mag/cell

     iteration #  2     ecut=    30.00 Ry     beta= 0.50
     Davidson diagonalization with overlap
     ethr =  1.55E-06,  avg # of iterations =  1.0

     total cpu time spent up to now is        9.7 secs

     total energy              =    -111.65566641 Ry
     estimated scf accuracy    <       0.00005359 Ry

     total magnetization       =     5.28 Bohr mag/cell
     absolute magnetization    =     5.42 Bohr mag/cell

     iteration #  3     ecut=    30.00 Ry     beta= 0.50
     Davidson diagonalization with overlap
     ethr =  3.35E-07,  avg # of iterations =  2.4

     total cpu time spent up to now is        9.8 secs

     total energy              =    -111.65566556 Ry
     estimated scf accuracy    <       0.00012964 Ry

     total magnetization       =     5.28 Bohr mag/cell
     absolute magnetization    =     5.41 Bohr mag/cell

     iteration #  4     ecut=    30.00 Ry     beta= 0.50
     Davidson diagonalization with overlap
     ethr =  3.35E-07,  avg # of iterations =  1.1

     total cpu time spent up to now is       10.0 secs

     total energy              =    -111.65567763 Ry
     estimated scf accuracy    <       0.00000221 Ry

     total magnetization       =     5.28 Bohr mag/cell
     absolute magnetization    =     5.41 Bohr mag/cell

     iteration #  5     ecut=    30.00 Ry     beta= 0.50
     Davidson diagonalization with overlap
     ethr =  1.38E-08,  avg # of iterations =  3.4

     total cpu time spent up to now is       10.1 secs

     total energy              =    -111.65567855 Ry
     estimated scf accuracy    <       0.00000081 Ry

     total magnetization       =     5.28 Bohr mag/cell
     absolute magnetization    =     5.42 Bohr mag/cell

     iteration #  6     ecut=    30.00 Ry     beta= 0.50
     Davidson diagonalization with overlap
     ethr =  5.07E-09,  avg # of iterations =  3.2

     total cpu time spent up to now is       10.2 secs

     total energy              =    -111.65567875 Ry
     estimated scf accuracy    <       0.00000001 Ry

     total magnetization       =     5.28 Bohr mag/cell
     absolute magnetization    =     5.42 Bohr mag/cell

     iteration #  7     ecut=    30.00 Ry     beta= 0.50
     Davidson diagonalization with overlap
     ethr =  6.89E-11,  avg # of iterations =  7.8

     total cpu time spent up to now is       10.4 secs

     total energy              =    -111.65567883 Ry
     estimated scf accuracy    <       0.00000001 Ry

     total magnetization       =     5.28 Bohr mag/cell
     absolute magnetization    =     5.42 Bohr mag/cell

     iteration #  8     ecut=    30.00 Ry     beta= 0.50
     Davidson diagonalization with overlap
     ethr =  6.89E-11,  avg # of iterations =  1.9

     total cpu time spent up to now is       10.5 secs

     total energy              =    -111.65567883 Ry
     estimated scf accuracy    <          1.2E-09 Ry

     total magnetization       =     5.28 Bohr mag/cell
     absolute magnetization    =     5.42 Bohr mag/cell

     iteration #  9     ecut=    30.00 Ry     beta= 0.50
     Davidson diagonalization with overlap
     ethr =  7.44E-12,  avg # of iterations =  2.9

     Magnetic moment per site  (integrated on atomic sphere of radius R)
     atom   1 (R=0.359)  charge=  6.3101  magn=  2.6184
     atom   2 (R=0.359)  charge=  6.3104  magn=  2.6184

     total cpu time spent up to now is       10.7 secs

     End of self-consistent calculation

 ------ SPIN UP ------------


          k = 0.0000 0.0000 0.0000 (   523 PWs)   bands (ev):

     4.9936   8.4891  10.7174  10.7175  11.2132  11.2134  11.4513  11.4513
    12.8122  13.6445  13.6447  18.0424

          k =-0.0000 0.3693 0.0000 (   488 PWs)   bands (ev):

     7.6309   8.8440   9.9134  10.2992  10.5471  11.7682  12.0982  12.3290
    12.5176  13.2713  14.1754  19.6138

          k = 0.3198 0.5539 0.0000 (   492 PWs)   bands (ev):

     9.1517   9.1517   9.3436   9.4045  11.5351  11.5351  12.4280  13.1923
    13.1923  14.4779  16.0363  16.6544

          k = 0.3198-0.1846-0.0000 (   488 PWs)   bands (ev):

     7.6309   8.8440   9.9133  10.2992  10.5472  11.7682  12.0981  12.3290
    12.5175  13.2713  14.1753  19.6136

 ------ SPIN DOWN ----------


          k = 0.0000 0.0000 0.0000 (   523 PWs)   bands (ev):

     5.2914  10.4491  13.5496  13.5497  13.6154  13.6156  14.5026  14.5027
    15.8711  16.3177  16.3179  18.2165

          k =-0.0000 0.3693 0.0000 (   488 PWs)   bands (ev):

     8.0862  10.9765  11.8325  12.3171  12.8258  14.7934  14.9281  15.0303
    15.5429  16.5383  16.9609  21.2715

          k = 0.3198 0.5539 0.0000 (   492 PWs)   bands (ev):

    10.8029  10.8030  11.0508  11.3110  13.7833  13.7833  15.6681  16.5254
    16.5255  17.3131  17.8402  18.3739

          k = 0.3198-0.1846-0.0000 (   488 PWs)   bands (ev):

     8.0862  10.9766  11.8324  12.3171  12.8259  14.7933  14.9281  15.0303
    15.5430  16.5383  16.9608  21.2713

     the Fermi energy is    14.4239 ev

!    total energy              =    -111.65567883 Ry
     estimated scf accuracy    <          2.5E-10 Ry
     smearing contrib. (-TS)   =       0.00083812 Ry
     internal energy E=F+TS    =    -111.65651695 Ry

     The total energy is F=E-TS. E is the sum of the following terms:
     one-electron contribution =      13.06573806 Ry
     hartree contribution      =      14.28117095 Ry
     xc contribution           =     -53.19414213 Ry
     ewald contribution        =     -85.80928384 Ry

     total magnetization       =     5.28 Bohr mag/cell
     absolute magnetization    =     5.42 Bohr mag/cell

     convergence has been achieved in   9 iterations

     Forces acting on atoms (cartesian axes, Ry/au):

     atom    1 type  1   force =    -0.00000000    0.00000852    0.00000000
     atom    2 type  1   force =     0.00000000   -0.00000852   -0.00000000

     Total force =     0.000012     Total SCF correction =     0.000001


     Computing stress (Cartesian axis) and pressure

          total   stress  (Ry/bohr**3)                   (kbar)     P=       88.74
   0.00066189  -0.00000000  -0.00000000           97.37       -0.00       -0.00
  -0.00000000   0.00066190   0.00000000           -0.00       97.37        0.00
   0.00000000  -0.00000000   0.00048588            0.00       -0.00       71.47

     Energy error            =      3.6E-03 Ry
     Gradient error          =      8.5E-06 Ry/Bohr
     Cell gradient error     =      9.7E+01 kbar

     number of scf cycles    =   5
     number of bfgs steps    =   4

     enthalpy           old  =    -111.6520352599 Ry
     enthalpy           new  =    -111.6556788318 Ry

     CASE: enthalpy          _new < enthalpy          _old

     new trust radius        =       0.0464436623 bohr
     new conv_thr            =       0.0000000010 Ry

     new unit-cell volume =    162.45243 a.u.^3 (    24.07297 Ang^3 )
     density =      7.70431 g/cm^3

CELL_PARAMETERS (angstrom)
   2.866732917   0.000000000   0.000000000
  -1.433366458   2.482648227  -0.000000000
  -0.000000000  -0.000000000   3.382417291

ATOMIC_POSITIONS (angstrom)
Fe              -0.0000000000       -0.0000084576        0.0000000000
Fe              -0.0000000000        1.6551118126        1.6912086455


     Message from routine punch:
     Nothing written, as per user request (disk_io='none')
     NEW-OLD atomic charge density approx. for the potential
     New effective cutoffs (rho, wfc):  442.28   40.96

     Check: negative core charge=   -0.000006
     Generating pointlists ...

     total cpu time spent up to now is       11.0 secs

     Self-consistent Calculation

     iteration #  1     ecut=    30.00 Ry     beta= 0.50
     Davidson diagonalization with overlap
     ethr =  1.00E-06,  avg # of iterations =  6.4

     total cpu time spent up to now is       11.2 secs

     total energy              =    -111.65796743 Ry
     estimated scf accuracy    <       0.00035549 Ry

     total magnetization       =     5.32 Bohr mag/cell
     absolute magnetization    =     5.47 Bohr mag/cell

     iteration #  2     ecut=    30.00 Ry     beta= 0.50
     Davidson diagonalization with overlap
     ethr =  2.22E-06,  avg # of iterations =  1.5

     total cpu time spent up to now is       11.3 secs

     total energy              =    -111.65802009 Ry
     estimated scf accuracy    <       0.00010045 Ry

     total magnetization       =     5.32 Bohr mag/cell
     absolute magnetization    =     5.48 Bohr mag/cell

     iteration #  3     ecut=    30.00 Ry     beta= 0.50
     Davidson diagonalization with overlap
     ethr =  6.28E-07,  avg # of iterations =  2.4

     total cpu time spent up to now is       11.5 secs

     total energy              =    -111.65801980 Ry
     estimated scf accuracy    <       0.00006632 Ry

     total magnetization       =     5.32 Bohr mag/cell
     absolute magnetization    =     5.48 Bohr mag/cell

     iteration #  4     ecut=    30.00 Ry     beta= 0.50
     Davidson diagonalization with overlap
     ethr =  4.14E-07,  avg # of iterations =  2.2

     total cpu time spent up to now is       11.6 secs

     total energy              =    -111.65802267 Ry
     estimated scf accuracy    <       0.00034470 Ry

     total magnetization       =     5.32 Bohr mag/cell
     absolute magnetization    =     5.48 Bohr mag/cell

     iteration #  5     ecut=    30.00 Ry     beta= 0.50
     Davidson diagonalization with overlap
     ethr =  4.14E-07,  avg # of iterations =  1.1

     total cpu time spent up to now is       11.7 secs

     total energy              =    -111.65804635 Ry
     estimated scf accuracy    <       0.00000104 Ry

     total magnetization       =     5.32 Bohr mag/cell
     absolute magnetization    =     5.49 Bohr mag/cell

     iteration #  6     ecut=    30.00 Ry     beta= 0.50
     Davidson diagonalization with overlap
     ethr =  6.51E-09,  avg # of iterations =  4.9

     total cpu time spent up to now is       11.9 secs

     total energy              =    -111.65804840 Ry
     estimated scf accuracy    <       0.00000245 Ry

     total magnetization       =     5.33 Bohr mag/cell
     absolute magnetization    =     5.49 Bohr mag/cell

     iteration #  7     ecut=    30.00 Ry     beta= 0.50
     Davidson diagonalization with overlap
     ethr =  6.51E-09,  avg # of iterations =  1.1

     total cpu time spent up to now is       12.0 secs

     total energy              =    -111.65804859 Ry
     estimated scf accuracy    <       0.00000007 Ry

     total magnetization       =     5.33 Bohr mag/cell
     absolute magnetization    =     5.49 Bohr mag/cell

     iteration #  8     ecut=    30.00 Ry     beta= 0.50
     Davidson diagonalization with overlap
     ethr =  4.36E-10,  avg # of iterations =  4.9

     total cpu time spent up to now is       12.1 secs

     total energy              =    -111.65804864 Ry
     estimated scf accuracy    <       0.00000001 Ry

     total magnetization       =     5.33 Bohr mag/cell
     absolute magnetization    =     5.49 Bohr mag/cell

     iteration #  9     ecut=    30.00 Ry     beta= 0.50
     Davidson diagonalization with overlap
     ethr =  7.42E-11,  avg # of iterations =  3.9

     Magnetic moment per site  (integrated on atomic sphere of radius R)
     atom   1 (R=0.359)  charge=  6.2716  magn=  2.6495
     atom   2 (R=0.359)  charge=  6.2712  magn=  2.6495

     total cpu time spent up to now is       12.3 secs

     End of self-consistent calculation

 ------ SPIN UP ------------


          k = 0.0000 0.0000 0.0000 (   523 PWs)   bands (ev):

     4.4985   7.9914  10.0198  10.0199  10.5363  10.5364  10.7094  10.7094
    12.0996  12.8578  12.8579  17.3668

          k =-0.0000 0.3625 0.0000 (   488 PWs)   bands (ev):

     7.0514   8.2913   9.2974   9.7229   9.9177  10.9767  11.3514  11.5199
    11.8149  12.4738  13.3549  18.4859

          k = 0.3139 0.5438 0.0000 (   492 PWs)   bands (ev):

     8.5589   8.5589   8.8076   8.8170  10.8756  10.8757  11.6495  12.3652
    12.3652  13.6460  15.0889  15.6096

          k = 0.3139-0.1813-0.0000 (   488 PWs)   bands (ev):

     7.0514   8.2913   9.2973   9.7229   9.9178  10.9767  11.3514  11.5200
    11.8149  12.4738  13.3548  18.4858

 ------ SPIN DOWN ----------


          k = 0.0000 0.0000 0.0000 (   523 PWs)   bands (ev):

     4.7681   9.9804  12.8930  12.8931  12.9510  12.9511  13.8060  13.8060
    15.1892  15.5477  15.5478  17.5064

          k =-0.0000 0.3625 0.0000 (   488 PWs)   bands (ev):

     7.4684  10.4599  11.2332  11.7661  12.2104  14.1124  14.1794  14.3312
    14.7757  15.7727  16.1559  20.1368

          k = 0.3139 0.5438 0.0000 (   492 PWs)   bands (ev):

    10.2055  10.2055  10.4643  10.8065  13.1426  13.1426  14.9456  15.7298
    15.7298  16.4981  16.8767  17.3473

          k = 0.3139-0.1813-0.0000 (   488 PWs)   bands (ev):

     7.4684  10.4599  11.2332  11.7662  12.2105  14.1123  14.1794  14.3312
    14.7758  15.7727  16.1559  20.1367

     the Fermi energy is    13.6194 ev

!    total energy              =    -111.65804865 Ry
     estimated scf accuracy    <          9.7E-10 Ry
     smearing contrib. (-TS)   =       0.00096638 Ry
     internal energy E=F+TS    =    -111.65901502 Ry

     The total energy is F=E-TS. E is the sum of the following terms:
     one-electron contribution =      11.21709957 Ry
     hartree contribution      =      14.78782748 Ry
     xc contribution           =     -53.14082845 Ry
     ewald contribution        =     -84.52311362 Ry

     total magnetization       =     5.33 Bohr mag/cell
     absolute magnetization    =     5.49 Bohr mag/cell

     convergence has been achieved in   9 iterations

     Forces acting on atoms (cartesian axes, Ry/au):

     atom    1 type  1   force =    -0.00000000    0.00000375    0.00000000
     atom    2 type  1   force =     0.00000000   -0.00000375   -0.00000000

     Total force =     0.000005     Total SCF correction =     0.000003
     SCF correction compared to forces is large: reduce conv_thr to get better values


     Computing stress (Cartesian axis) and pressure

          total   stress  (Ry/bohr**3)                   (kbar)     P=        7.98
   0.00007222  -0.00000000  -0.00000000           10.62       -0.00       -0.00
  -0.00000000   0.00007224   0.00000000           -0.00       10.63        0.00
  -0.00000000   0.00000000   0.00001824           -0.00        0.00        2.68

     Energy error            =      2.4E-03 Ry
     Gradient error          =      3.8E-06 Ry/Bohr
     Cell gradient error     =      1.1E+01 kbar

     number of scf cycles    =   6
     number of bfgs steps    =   5

     enthalpy           old  =    -111.6556788318 Ry
     enthalpy           new  =    -111.6580486473 Ry

     CASE: enthalpy          _new < enthalpy          _old

     new trust radius        =       0.0074198335 bohr
     new conv_thr            =       0.0000000010 Ry

     new unit-cell volume =    163.19153 a.u.^3 (    24.18249 Ang^3 )
     density =      7.66942 g/cm^3

CELL_PARAMETERS (angstrom)
   2.875075906   0.000000000   0.000000000
  -1.437537953   2.489874531  -0.000000000
  -0.000000000   0.000000000   3.378113393

ATOMIC_POSITIONS (angstrom)
Fe              -0.0000000000       -0.0000059828        0.0000000000
Fe              -0.0000000000        1.6599268872        1.6890566963


     Message from routine punch:
     Nothing written, as per user request (disk_io='none')
     NEW-OLD atomic charge density approx. for the potential
     New effective cutoffs (rho, wfc):  443.27   41.02

     Check: negative core charge=   -0.000006
     Generating pointlists ...

     total cpu time spent up to now is       12.6 secs

     Self-consistent Calculation

     iteration #  1     ecut=    30.00 Ry     beta= 0.50
     Davidson diagonalization with overlap
     ethr =  1.00E-06,  avg # of iterations =  3.1

     Threshold (ethr) on eigenvalues was too large:
     Diagonalizing with lowered threshold

     Davidson diagonalization with overlap
     ethr =  3.98E-08,  avg # of iterations =  3.2

     total cpu time spent up to now is       12.9 secs

     total energy              =    -111.65808214 Ry
     estimated scf accuracy    <       0.00000599 Ry

     total magnetization       =     5.32 Bohr mag/cell
     absolute magnetization    =     5.49 Bohr mag/cell

     iteration #  2     ecut=    30.00 Ry     beta= 0.50
     Davidson diagonalization with overlap
     ethr =  3.75E-08,  avg # of iterations =  1.5

     total cpu time spent up to now is       13.0 secs

     total energy              =    -111.65808256 Ry
     estimated scf accuracy    <       0.00000201 Ry

     total magnetization       =     5.32 Bohr mag/cell
     absolute magnetization    =     5.49 Bohr mag/cell

     iteration #  3     ecut=    30.00 Ry     beta= 0.50
     Davidson diagonalization with overlap
     ethr =  1.26E-08,  avg # of iterations =  2.2

     total cpu time spent up to now is       13.1 secs

     total energy              =    -111.65808154 Ry
     estimated scf accuracy    <       0.00002204 Ry

     total magnetization       =     5.32 Bohr mag/cell
     absolute magnetization    =     5.49 Bohr mag/cell

     iteration #  4     ecut=    30.00 Ry     beta= 0.50
     Davidson diagonalization with overlap
     ethr =  1.26E-08,  avg # of iterations =  2.2

     total cpu time spent up to now is       13.2 secs

     total energy              =    -111.65808336 Ry
     estimated scf accuracy    <       0.00000032 Ry

     total magnetization       =     5.32 Bohr mag/cell
     absolute magnetization    =     5.49 Bohr mag/cell

     iteration #  5     ecut=    30.00 Ry     beta= 0.50
     Davidson diagonalization with overlap
     ethr =  1.99E-09,  avg # of iterations =  2.0

     total cpu time spent up to now is       13.4 secs

     total energy              =    -111.65808342 Ry
     estimated scf accuracy    <       0.00000003 Ry

     total magnetization       =     5.32 Bohr mag/cell
     absolute magnetization    =     5.49 Bohr mag/cell

     iteration #  6     ecut=    30.00 Ry     beta= 0.50
     Davidson diagonalization with overlap
     ethr =  1.73E-10,  avg # of iterations =  4.8

     total cpu time spent up to now is       13.5 secs

     total energy              =    -111.65808344 Ry
     estimated scf accuracy    <       0.00000001 Ry

     total magnetization       =     5.32 Bohr mag/cell
     absolute magnetization    =     5.49 Bohr mag/cell

     iteration #  7     ecut=    30.00 Ry     beta= 0.50
     Davidson diagonalization with overlap
     ethr =  7.96E-11,  avg # of iterations =  2.1

     total cpu time spent up to now is       13.6 secs

     total energy              =    -111.65808344 Ry
     estimated scf accuracy    <          2.3E-09 Ry

     total magnetization       =     5.32 Bohr mag/cell
     absolute magnetization    =     5.49 Bohr mag/cell

     iteration #  8     ecut=    30.00 Ry     beta= 0.50
     Davidson diagonalization with overlap
     ethr =  1.45E-11,  avg # of iterations =  4.4

     Magnetic moment per site  (integrated on atomic sphere of radius R)
     atom   1 (R=0.359)  charge=  6.2686  magn=  2.6494
     atom   2 (R=0.359)  charge=  6.2681  magn=  2.6493

     total cpu time spent up to now is       13.8 secs

     End of self-consistent calculation

 ------ SPIN UP ------------


          k = 0.0000 0.0000 0.0000 (   523 PWs)   bands (ev):

     4.4497   7.9401   9.9458   9.9459  10.4624  10.4625  10.6339  10.6339
    12.0366  12.7814  12.7815  17.3517

          k =-0.0000 0.3615-0.0000 (   488 PWs)   bands (ev):

     6.9899   8.2315   9.2308   9.6692   9.8500  10.8892  11.2786  11.4361
    11.7521  12.3947  13.2761  18.3508

          k = 0.3130 0.5422-0.0000 (   492 PWs)   bands (ev):

     8.4944   8.4944   8.7420   8.7657  10.8137  10.8138  11.5768  12.2794
    12.2794  13.5683  14.9755  15.4842

          k = 0.3130-0.1807 0.0000 (   488 PWs)   bands (ev):

     6.9898   8.2315   9.2307   9.6692   9.8501  10.8892  11.2786  11.4362
    11.7520  12.3947  13.2761  18.3507

 ------ SPIN DOWN ----------


          k = 0.0000 0.0000 0.0000 (   523 PWs)   bands (ev):

     4.7162   9.9314  12.8185  12.8186  12.8734  12.8735  13.7312  13.7312
    15.1265  15.4680  15.4681  17.4890

          k =-0.0000 0.3615-0.0000 (   488 PWs)   bands (ev):

     7.4020  10.4006  11.1650  11.7149  12.1399  14.0504  14.0915  14.2614
    14.6916  15.6937  16.0736  20.0007

          k = 0.3130 0.5422-0.0000 (   492 PWs)   bands (ev):

    10.1371  10.1372  10.3970  10.7559  13.0804  13.0804  14.8772  15.6430
    15.6431  16.4173  16.7582  17.2226

          k = 0.3130-0.1807 0.0000 (   488 PWs)   bands (ev):

     7.4020  10.4006  11.1650  11.7149  12.1400  14.0504  14.0915  14.2614
    14.6916  15.6937  16.0736  20.0006

     the Fermi energy is    13.5404 ev

!    total energy              =    -111.65808344 Ry
     estimated scf accuracy    <          8.7E-11 Ry
     smearing contrib. (-TS)   =       0.00098696 Ry
     internal energy E=F+TS    =    -111.65907041 Ry

     The total energy is F=E-TS. E is the sum of the following terms:
     one-electron contribution =      11.00427251 Ry
     hartree contribution      =      14.85090060 Ry
     xc contribution           =     -53.13558988 Ry
     ewald contribution        =     -84.37865364 Ry

     total magnetization       =     5.32 Bohr mag/cell
     absolute magnetization    =     5.49 Bohr mag/cell

     convergence has been achieved in   8 iterations

     Forces acting on atoms (cartesian axes, Ry/au):

     atom    1 type  1   force =    -0.00000000    0.00000360   -0.00000000
     atom    2 type  1   force =     0.00000000   -0.00000360    0.00000000

     Total force =     0.000005     Total SCF correction =     0.000001
     SCF correction compared to forces is large: reduce conv_thr to get better values


     Computing stress (Cartesian axis) and pressure

          total   stress  (Ry/bohr**3)                   (kbar)     P=        0.48
   0.00000550  -0.00000000   0.00000000            0.81       -0.00        0.00
  -0.00000000   0.00000553  -0.00000000           -0.00        0.81       -0.00
   0.00000000  -0.00000000  -0.00000133            0.00       -0.00       -0.20

     Energy error            =      3.5E-05 Ry
     Gradient error          =      3.6E-06 Ry/Bohr
     Cell gradient error     =      8.1E-01 kbar

     number of scf cycles    =   7
     number of bfgs steps    =   6

     enthalpy           old  =    -111.6580486473 Ry
     enthalpy           new  =    -111.6580834442 Ry

     CASE: enthalpy          _new < enthalpy          _old

     new trust radius        =       0.0007491525 bohr
     new conv_thr            =       0.0000000010 Ry

     new unit-cell volume =    163.24257 a.u.^3 (    24.19005 Ang^3 )
     density =      7.66702 g/cm^3

CELL_PARAMETERS (angstrom)
   2.875917221   0.000000000   0.000000000
  -1.437958610   2.490604609  -0.000000000
  -0.000000000   0.000000000   3.377191338

ATOMIC_POSITIONS (angstrom)
Fe              -0.0000000000       -0.0000035974        0.0000000000
Fe              -0.0000000000        1.6604112214        1.6885956692


     Message from routine punch:
     Nothing written, as per user request (disk_io='none')
     NEW-OLD atomic charge density approx. for the potential
     New effective cutoffs (rho, wfc):  443.49   41.03

     Check: negative core charge=   -0.000006
     Generating pointlists ...

     total cpu time spent up to now is       14.1 secs

     Self-consistent Calculation

     iteration #  1     ecut=    30.00 Ry     beta= 0.50
     Davidson diagonalization with overlap
     ethr =  1.00E-06,  avg # of iterations =  2.0

     Threshold (ethr) on eigenvalues was too large:
     Diagonalizing with lowered threshold

     Davidson diagonalization with overlap
     ethr =  5.38E-10,  avg # of iterations =  3.4

     total cpu time spent up to now is       14.4 secs

     total energy              =    -111.65808374 Ry
     estimated scf accuracy    <       0.00000008 Ry

     total magnetization       =     5.32 Bohr mag/cell
     absolute magnetization    =     5.49 Bohr mag/cell

     iteration #  2     ecut=    30.00 Ry     beta= 0.50
     Davidson diagonalization with overlap
     ethr =  4.97E-10,  avg # of iterations =  1.9

     total cpu time spent up to now is       14.5 secs

     total energy              =    -111.65808371 Ry
     estimated scf accuracy    <       0.00000026 Ry

     total magnetization       =     5.32 Bohr mag/cell
     absolute magnetization    =     5.49 Bohr mag/cell

     iteration #  3     ecut=    30.00 Ry     beta= 0.50
     Davidson diagonalization with overlap
     ethr =  4.97E-10,  avg # of iterations =  1.8

     total cpu time spent up to now is       14.6 secs

     total energy              =    -111.65808375 Ry
     estimated scf accuracy    <       0.00000011 Ry

     total magnetization       =     5.32 Bohr mag/cell
     absolute magnetization    =     5.49 Bohr mag/cell

     iteration #  4     ecut=    30.00 Ry     beta= 0.50
     Davidson diagonalization with overlap
     ethr =  4.97E-10,  avg # of iterations =  1.0

     Magnetic moment per site  (integrated on atomic sphere of radius R)
     atom   1 (R=0.359)  charge=  6.2684  magn=  2.6492
     atom   2 (R=0.359)  charge=  6.2680  magn=  2.6492

     total cpu time spent up to now is       14.7 secs

     End of self-consistent calculation

 ------ SPIN UP ------------


          k = 0.0000 0.0000 0.0000 (   523 PWs)   bands (ev):

     4.4465   7.9365   9.9404   9.9405  10.4569  10.4569  10.6287  10.6287
    12.0332  12.7765  12.7766  17.3558

          k =-0.0000 0.3614-0.0000 (   488 PWs)   bands (ev):

     6.9853   8.2271   9.2258   9.6661   9.8451  10.8824  11.2739  11.4302
    11.7486  12.3895  13.2711  18.3395

          k = 0.3129 0.5420-0.0000 (   492 PWs)   bands (ev):

     8.4896   8.4896   8.7369   8.7624  10.8100  10.8100  11.5724  12.2734
    12.2734  13.5636  14.9660  15.4737

          k = 0.3129-0.1807 0.0000 (   488 PWs)   bands (ev):

     6.9853   8.2271   9.2258   9.6661   9.8451  10.8824  11.2739  11.4302
    11.7485  12.3894  13.2711  18.3394

 ------ SPIN DOWN ----------


          k = 0.0000 0.0000 0.0000 (   523 PWs)   bands (ev):

     4.7127   9.9280  12.8128  12.8128  12.8674  12.8674  13.7258  13.7258
    15.1230  15.4626  15.4627  17.4929

          k =-0.0000 0.3614-0.0000 (   488 PWs)   bands (ev):

     7.3971  10.3960  11.1597  11.7120  12.1345  14.0470  14.0844  14.2569
    14.6853  15.6884  16.0682  19.9894

          k = 0.3129 0.5420-0.0000 (   492 PWs)   bands (ev):

    10.1318  10.1318  10.3917  10.7527  13.0766  13.0766  14.8731  15.6367
    15.6367  16.4122  16.7482  17.2122

          k = 0.3129-0.1807 0.0000 (   488 PWs)   bands (ev):

     7.3971  10.3960  11.1597  11.7120  12.1346  14.0470  14.0844  14.2568
    14.6853  15.6884  16.0682  19.9893

     the Fermi energy is    13.5354 ev

!    total energy              =    -111.65808376 Ry
     estimated scf accuracy    <          8.0E-10 Ry
     smearing contrib. (-TS)   =       0.00098804 Ry
     internal energy E=F+TS    =    -111.65907180 Ry

     The total energy is F=E-TS. E is the sum of the following terms:
     one-electron contribution =      10.98760685 Ry
     hartree contribution      =      14.85619968 Ry
     xc contribution           =     -53.13528143 Ry
     ewald contribution        =     -84.36759689 Ry

     total magnetization       =     5.32 Bohr mag/cell
     absolute magnetization    =     5.49 Bohr mag/cell

     convergence has been achieved in   4 iterations

     Forces acting on atoms (cartesian axes, Ry/au):

     atom    1 type  1   force =     0.00000000   -0.00000025    0.00000000
     atom    2 type  1   force =    -0.00000000    0.00000025   -0.00000000

     Total force =     0.000000     Total SCF correction =     0.000002
     SCF correction compared to forces is large: reduce conv_thr to get better values


     Computing stress (Cartesian axis) and pressure

          total   stress  (Ry/bohr**3)                   (kbar)     P=       -0.11
  -0.00000081  -0.00000000   0.00000000           -0.12       -0.00        0.00
   0.00000000  -0.00000078   0.00000000            0.00       -0.11        0.00
  -0.00000000   0.00000000  -0.00000055           -0.00        0.00       -0.08

     Energy error            =      3.1E-07 Ry
     Gradient error          =      2.5E-07 Ry/Bohr
     Cell gradient error     =      1.2E-01 kbar

     bfgs converged in   8 scf cycles and   7 bfgs steps
     (criteria: energy <  1.0E-04 Ry, force <  1.0E-03 Ry/Bohr, cell <  5.0E-01 kbar)

     End of BFGS Geometry Optimization

     Final enthalpy           =    -111.6580837564 Ry

     File /home/bond/Work/Lab4/1A/Fe_hcp_nk_3_relax/pwscf.bfgs deleted, as requested
Begin final coordinates
     new unit-cell volume =    163.24257 a.u.^3 (    24.19005 Ang^3 )
     density =      7.66702 g/cm^3

CELL_PARAMETERS (angstrom)
   2.875917221   0.000000000   0.000000000
  -1.437958610   2.490604609  -0.000000000
  -0.000000000   0.000000000   3.377191338

ATOMIC_POSITIONS (angstrom)
Fe              -0.0000000000       -0.0000035974        0.0000000000
Fe              -0.0000000000        1.6604112214        1.6885956692
End final coordinates


     Message from routine punch:
     Nothing written, as per user request (disk_io='none')

     Final scf calculation at the relaxed structure.
     The G-vectors are recalculated for the final unit cell
     Results may differ from those at the preceding step.

     Parallelization info
     --------------------
     sticks:   dense  smooth     PW     G-vecs:    dense   smooth      PW
     Min         297     126     42                 7145     1811     354
     Max         298     127     43                 7152     1812     355
     Sum         595     253     85                14297     3623     709

     Using Slab Decomposition



     bravais-lattice index     =            0
     lattice parameter (alat)  =       5.1023  a.u.
     unit-cell volume          =     163.2426 (a.u.)^3
     number of atoms/cell      =            2
     number of atomic types    =            1
     number of electrons       =        16.00
     number of Kohn-Sham states=           12
     kinetic-energy cutoff     =      30.0000  Ry
     charge density cutoff     =     300.0000  Ry
     scf convergence threshold =      1.0E-09
     mixing beta               =       0.5000
     number of iterations used =            8  plain     mixing
     press convergence thresh. =      5.0E-01
     Exchange-correlation=  SLA  PW   PBE  PBE
                           (   1   4   3   4   0   0   0)

     celldm(1)=   5.102261  celldm(2)=   0.000000  celldm(3)=   0.000000
     celldm(4)=   0.000000  celldm(5)=   0.000000  celldm(6)=   0.000000

     crystal axes: (cart. coord. in units of alat)
               a(1) = (   1.065155   0.000000   0.000000 )  
               a(2) = (  -0.532577   0.922446  -0.000000 )  
               a(3) = (  -0.000000   0.000000   1.250812 )  

     reciprocal axes: (cart. coord. in units 2 pi/alat)
               b(1) = (  0.938831  0.542037 -0.000000 )  
               b(2) = ( -0.000000  1.084074 -0.000000 )  
               b(3) = ( -0.000000  0.000000  0.799481 )  


     PseudoPot. # 1 for Fe read from file:
     /home/bond/Software/QE/qe-7.4.1/pseudo/Fe.pbe-nd-rrkjus.UPF
     MD5 check sum: 398036227a04b607635f6f5e8dfd8242
     Pseudo is Ultrasoft + core correction, Zval =  8.0
     Generated by new atomic code, or converted to UPF format
     Using radial grid of  957 points,  6 beta functions with: 
                l(1) =   0
                l(2) =   0
                l(3) =   1
                l(4) =   1
                l(5) =   2
                l(6) =   2
     Q(r) pseudized with 0 coefficients 


     atomic species   valence    mass     pseudopotential
     Fe                8.00    55.84500     Fe( 1.00)

     Starting magnetic structure 
     atomic species   magnetization
     Fe              0.423

      4 Sym. Ops. (no inversion) found



   Cartesian axes

     site n.     atom                  positions (alat units)
         1        Fe     tau(   1) = (  -0.0000000  -0.0000013   0.0000000  )
         2        Fe     tau(   2) = (  -0.0000000   0.6149671   0.6254058  )

     number of k points=     4  Methfessel-Paxton smearing, width (Ry)=  0.0200
                       cart. coord. in units 2pi/alat
        k(    1) = (   0.0000000   0.0000000   0.0000000), wk =   0.1111111
        k(    2) = (  -0.0000000   0.3613580  -0.0000000), wk =   0.2222222
        k(    3) = (   0.3129436   0.5420371  -0.0000000), wk =   0.2222222
        k(    4) = (   0.3129436  -0.1806790   0.0000000), wk =   0.4444444

     Dense  grid:    14297 G-vectors     FFT dimensions: (  30,  30,  36)

     Smooth grid:     3623 G-vectors     FFT dimensions: (  20,  20,  24)

     Estimated max dynamical RAM per process >      32.28 MB

     Estimated total dynamical RAM >      64.57 MB

     Check: negative core charge=   -0.000009
     Generating pointlists ...

     Initial potential from superposition of free atoms

     starting charge      15.9987, renormalised to      16.0000
     Starting wfcs are   12 randomized atomic wfcs

     total cpu time spent up to now is       15.3 secs

     Self-consistent Calculation

     iteration #  1     ecut=    30.00 Ry     beta= 0.50
     Davidson diagonalization with overlap
     c_bands:  1 eigenvalues not converged
     c_bands:  1 eigenvalues not converged
     ethr =  1.00E-06,  avg # of iterations = 17.2

     total cpu time spent up to now is       15.5 secs

     total energy              =    -111.53376869 Ry
     estimated scf accuracy    <       0.35076383 Ry

     total magnetization       =     5.30 Bohr mag/cell
     absolute magnetization    =     5.30 Bohr mag/cell

     iteration #  2     ecut=    30.00 Ry     beta= 0.50
     Davidson diagonalization with overlap
     ethr =  2.19E-03,  avg # of iterations =  2.5

     total cpu time spent up to now is       15.6 secs

     total energy              =    -111.64444175 Ry
     estimated scf accuracy    <       0.02958442 Ry

     total magnetization       =     5.36 Bohr mag/cell
     absolute magnetization    =     5.40 Bohr mag/cell

     iteration #  3     ecut=    30.00 Ry     beta= 0.50
     Davidson diagonalization with overlap
     ethr =  1.85E-04,  avg # of iterations =  1.6

     total cpu time spent up to now is       15.7 secs

     total energy              =    -111.65427163 Ry
     estimated scf accuracy    <       0.00563978 Ry

     total magnetization       =     5.29 Bohr mag/cell
     absolute magnetization    =     5.35 Bohr mag/cell

     iteration #  4     ecut=    30.00 Ry     beta= 0.50
     Davidson diagonalization with overlap
     ethr =  3.52E-05,  avg # of iterations =  3.1

     total cpu time spent up to now is       15.8 secs

     total energy              =    -111.65774504 Ry
     estimated scf accuracy    <       0.00665906 Ry

     total magnetization       =     5.27 Bohr mag/cell
     absolute magnetization    =     5.40 Bohr mag/cell

     iteration #  5     ecut=    30.00 Ry     beta= 0.50
     Davidson diagonalization with overlap
     ethr =  3.52E-05,  avg # of iterations =  1.0

     total cpu time spent up to now is       15.9 secs

     total energy              =    -111.65702715 Ry
     estimated scf accuracy    <       0.00232051 Ry

     total magnetization       =     5.28 Bohr mag/cell
     absolute magnetization    =     5.41 Bohr mag/cell

     iteration #  6     ecut=    30.00 Ry     beta= 0.50
     Davidson diagonalization with overlap
     ethr =  1.45E-05,  avg # of iterations =  2.2

     total cpu time spent up to now is       16.0 secs

     total energy              =    -111.65786375 Ry
     estimated scf accuracy    <       0.00021728 Ry

     total magnetization       =     5.31 Bohr mag/cell
     absolute magnetization    =     5.45 Bohr mag/cell

     iteration #  7     ecut=    30.00 Ry     beta= 0.50
     Davidson diagonalization with overlap
     ethr =  1.36E-06,  avg # of iterations =  3.6

     total cpu time spent up to now is       16.2 secs

     total energy              =    -111.65805592 Ry
     estimated scf accuracy    <       0.00003462 Ry

     total magnetization       =     5.32 Bohr mag/cell
     absolute magnetization    =     5.48 Bohr mag/cell

     iteration #  8     ecut=    30.00 Ry     beta= 0.50
     Davidson diagonalization with overlap
     ethr =  2.16E-07,  avg # of iterations =  3.8

     total cpu time spent up to now is       16.3 secs

     total energy              =    -111.65803176 Ry
     estimated scf accuracy    <       0.00008928 Ry

     total magnetization       =     5.32 Bohr mag/cell
     absolute magnetization    =     5.49 Bohr mag/cell

     iteration #  9     ecut=    30.00 Ry     beta= 0.50
     Davidson diagonalization with overlap
     ethr =  2.16E-07,  avg # of iterations =  3.0

     total cpu time spent up to now is       16.4 secs

     total energy              =    -111.65804531 Ry
     estimated scf accuracy    <       0.00000257 Ry

     total magnetization       =     5.32 Bohr mag/cell
     absolute magnetization    =     5.49 Bohr mag/cell

     iteration # 10     ecut=    30.00 Ry     beta= 0.50
     Davidson diagonalization with overlap
     ethr =  1.60E-08,  avg # of iterations =  5.0

     total cpu time spent up to now is       16.5 secs

     total energy              =    -111.65804794 Ry
     estimated scf accuracy    <       0.00000149 Ry

     total magnetization       =     5.32 Bohr mag/cell
     absolute magnetization    =     5.49 Bohr mag/cell

     iteration # 11     ecut=    30.00 Ry     beta= 0.50
     Davidson diagonalization with overlap
     ethr =  9.29E-09,  avg # of iterations =  2.5

     total cpu time spent up to now is       16.6 secs

     total energy              =    -111.65804841 Ry
     estimated scf accuracy    <          5.5E-09 Ry

     total magnetization       =     5.32 Bohr mag/cell
     absolute magnetization    =     5.49 Bohr mag/cell

     iteration # 12     ecut=    30.00 Ry     beta= 0.50
     Davidson diagonalization with overlap
     ethr =  3.46E-11,  avg # of iterations = 11.9

     total cpu time spent up to now is       16.8 secs

     total energy              =    -111.65804852 Ry
     estimated scf accuracy    <       0.00000002 Ry

     total magnetization       =     5.32 Bohr mag/cell
     absolute magnetization    =     5.49 Bohr mag/cell

     iteration # 13     ecut=    30.00 Ry     beta= 0.50
     Davidson diagonalization with overlap
     ethr =  3.46E-11,  avg # of iterations =  2.6

     total cpu time spent up to now is       16.9 secs

     total energy              =    -111.65804853 Ry
     estimated scf accuracy    <          1.4E-09 Ry

     total magnetization       =     5.32 Bohr mag/cell
     absolute magnetization    =     5.49 Bohr mag/cell

     iteration # 14     ecut=    30.00 Ry     beta= 0.50
     Davidson diagonalization with overlap
     ethr =  8.44E-12,  avg # of iterations =  3.6

     Magnetic moment per site  (integrated on atomic sphere of radius R)
     atom   1 (R=0.359)  charge=  6.2685  magn=  2.6493
     atom   2 (R=0.359)  charge=  6.2685  magn=  2.6493

     total cpu time spent up to now is       17.0 secs

     End of self-consistent calculation

 ------ SPIN UP ------------


          k = 0.0000 0.0000 0.0000 (   455 PWs)   bands (ev):

     4.4472   7.9367   9.9414   9.9415  10.4580  10.4581  10.6293  10.6293
    12.0333  12.7772  12.7772  17.3562

          k =-0.0000 0.3614-0.0000 (   452 PWs)   bands (ev):

     6.9855   8.2276   9.2262   9.6667   9.8454  10.8831  11.2746  11.4308
    11.7490  12.3899  13.2712  18.3405

          k = 0.3129 0.5420-0.0000 (   441 PWs)   bands (ev):

     8.4895   8.4895   8.7380   8.7632  10.8107  10.8107  11.5730  12.2740
    12.2740  13.5641  14.9672  15.4746

          k = 0.3129-0.1807 0.0000 (   452 PWs)   bands (ev):

     6.9855   8.2276   9.2262   9.6667   9.8455  10.8831  11.2746  11.4308
    11.7490  12.3899  13.2712  18.3404

 ------ SPIN DOWN ----------


          k = 0.0000 0.0000 0.0000 (   455 PWs)   bands (ev):

     4.7136   9.9284  12.8145  12.8146  12.8686  12.8687  13.7271  13.7271
    15.1230  15.4634  15.4635  17.4935

          k =-0.0000 0.3614-0.0000 (   452 PWs)   bands (ev):

     7.3977  10.3968  11.1603  11.7129  12.1349  14.0474  14.0855  14.2579
    14.6864  15.6889  16.0682  19.9909

          k = 0.3129 0.5420-0.0000 (   441 PWs)   bands (ev):

    10.1319  10.1319  10.3931  10.7537  13.0774  13.0774  14.8741  15.6377
    15.6377  16.4126  16.7498  17.2137

          k = 0.3129-0.1807 0.0000 (   452 PWs)   bands (ev):

     7.3977  10.3968  11.1603  11.7129  12.1350  14.0474  14.0855  14.2579
    14.6864  15.6889  16.0682  19.9908

     the Fermi energy is    13.5358 ev

!    total energy              =    -111.65804853 Ry
     estimated scf accuracy    <          8.2E-11 Ry
     smearing contrib. (-TS)   =       0.00099313 Ry
     internal energy E=F+TS    =    -111.65904166 Ry

     The total energy is F=E-TS. E is the sum of the following terms:
     one-electron contribution =      10.98786067 Ry
     hartree contribution      =      14.85649891 Ry
     xc contribution           =     -53.13580434 Ry
     ewald contribution        =     -84.36759689 Ry

     total magnetization       =     5.32 Bohr mag/cell
     absolute magnetization    =     5.49 Bohr mag/cell

     convergence has been achieved in  14 iterations

     Forces acting on atoms (cartesian axes, Ry/au):

     atom    1 type  1   force =    -0.00000000    0.00000216   -0.00000000
     atom    2 type  1   force =     0.00000000   -0.00000216    0.00000000

     Total force =     0.000003     Total SCF correction =     0.000002
     SCF correction compared to forces is large: reduce conv_thr to get better values


     Computing stress (Cartesian axis) and pressure

          total   stress  (Ry/bohr**3)                   (kbar)     P=       -0.80
   0.00000729  -0.00000000   0.00000000            1.07       -0.00        0.00
  -0.00000000   0.00000731  -0.00000000           -0.00        1.08       -0.00
   0.00000000  -0.00000000  -0.00003094            0.00       -0.00       -4.55

     Message from routine punch:
     Nothing written, as per user request (disk_io='none')

     init_run     :      0.82s CPU      0.84s WALL (       2 calls)
     electrons    :     12.04s CPU     12.76s WALL (       9 calls)
     update_pot   :      0.13s CPU      0.15s WALL (       7 calls)
     forces       :      0.50s CPU      0.51s WALL (       9 calls)
     stress       :      2.61s CPU      2.70s WALL (       9 calls)

     Called by init_run:
     wfcinit      :      0.03s CPU      0.03s WALL (       2 calls)
     potinit      :      0.27s CPU      0.28s WALL (       2 calls)
     hinit0       :      0.43s CPU      0.44s WALL (       2 calls)

     Called by electrons:
     c_bands      :      4.06s CPU      4.57s WALL (      88 calls)
     sum_band     :      4.33s CPU      4.44s WALL (      88 calls)
     v_of_rho     :      1.58s CPU      1.65s WALL (      95 calls)
     newd         :      2.23s CPU      2.28s WALL (      95 calls)
     mix_rho      :      0.11s CPU      0.12s WALL (      88 calls)

     Called by c_bands:
     init_us_2    :      0.10s CPU      0.11s WALL (    1568 calls)
     cegterg      :      3.78s CPU      4.25s WALL (     704 calls)

     Called by *egterg:
     cdiaghg      :      0.38s CPU      0.42s WALL (    3107 calls)
     h_psi        :      3.00s CPU      3.37s WALL (    3195 calls)
     s_psi        :      0.06s CPU      0.07s WALL (    3195 calls)
     g_psi        :      0.02s CPU      0.02s WALL (    2475 calls)

     Called by h_psi:
     h_psi:calbec :      0.11s CPU      0.13s WALL (    3195 calls)
     vloc_psi     :      2.80s CPU      3.14s WALL (    3195 calls)
     add_vuspsi   :      0.07s CPU      0.08s WALL (    3195 calls)

     General routines
     calbec       :      0.19s CPU      0.21s WALL (    5123 calls)
     fft          :      0.80s CPU      0.83s WALL (    2728 calls)
     ffts         :      0.23s CPU      0.23s WALL (     366 calls)
     fftw         :      2.82s CPU      3.17s WALL (   59544 calls)
     interpolate  :      0.27s CPU      0.27s WALL (     190 calls)

     Parallel routines

     PWSCF        :     16.43s CPU     17.32s WALL


   This run was terminated on:  17:51:11  20Oct2025            

=------------------------------------------------------------------------------=
   JOB DONE.
=------------------------------------------------------------------------------=
