
     Program PWSCF v.7.4.1 starts on 21Oct2025 at 12:11:44 

     This program is part of the open-source Quantum ESPRESSO suite
     for quantum simulation of materials; please cite
         "P. Giannozzi et al., J. Phys.:Condens. Matter 21 395502 (2009);
         "P. Giannozzi et al., J. Phys.:Condens. Matter 29 465901 (2017);
         "P. Giannozzi et al., J. Chem. Phys. 152 154105 (2020);
          URL http://www.quantum-espresso.org", 
     in publications or presentations arising from this work. More details at
     http://www.quantum-espresso.org/quote

     Parallel version (MPI), running on     2 processors

     MPI processes distributed on     1 nodes
     446 MiB available memory on the printing compute node when the environment starts

     Waiting for input...
     Reading input from standard input
Warning: card &CELL ignored
Warning: card / ignored

     Current dimensions of program PWSCF are:
     Max number of different atomic species (ntypx) = 10
     Max number of k-points (npk) =  40000
     Max angular momentum in pseudopotentials (lmaxx) =  4
     file O.pz-rrkjus.UPF: wavefunction(s)  2S renormalized
     Message from routine setup:
     using ibrav=0 with symmetry is DISCOURAGED, use correct ibrav instead

     R & G space division:  proc/nbgrp/npool/nimage =       2
     Subspace diagonalization in iterative solution of the eigenvalue problem:
     a serial algorithm will be used


     Parallelization info
     --------------------
     sticks:   dense  smooth     PW     G-vecs:    dense   smooth      PW
     Min         502     252     74                12150     4300     709
     Max         503     253     75                12153     4301     710
     Sum        1005     505    149                24303     8601    1419

     Using Slab Decomposition



     bravais-lattice index     =            0
     lattice parameter (alat)  =       7.2991  a.u.
     unit-cell volume          =     388.8679 (a.u.)^3
     number of atoms/cell      =            5
     number of atomic types    =            3
     number of electrons       =        44.00
     number of Kohn-Sham states=           22
     kinetic-energy cutoff     =      30.0000  Ry
     charge density cutoff     =     240.0000  Ry
     scf convergence threshold =      1.0E-07
     mixing beta               =       0.7000
     number of iterations used =            8  plain     mixing
     Exchange-correlation= SLA  PZ   NOGX NOGC
                           (   1   1   0   0   0   0   0)

     celldm(1)=   7.299067  celldm(2)=   0.000000  celldm(3)=   0.000000
     celldm(4)=   0.000000  celldm(5)=   0.000000  celldm(6)=   0.000000

     crystal axes: (cart. coord. in units of alat)
               a(1) = (   1.000000   0.000000   0.000000 )  
               a(2) = (   0.000000   1.000000   0.000000 )  
               a(3) = (   0.000000   0.000000   1.000000 )  

     reciprocal axes: (cart. coord. in units 2 pi/alat)
               b(1) = (  1.000000  0.000000  0.000000 )  
               b(2) = (  0.000000  1.000000  0.000000 )  
               b(3) = (  0.000000  0.000000  1.000000 )  


     PseudoPot. # 1 for O  read from file:
     /home/bond/Software/QE/qe-7.4.1/pseudo/O.pz-rrkjus.UPF
     MD5 check sum: 24fb942a68ef5d262e498166c462ef4a
     Pseudo is Ultrasoft, Zval =  6.0
     Generated by new atomic code, or converted to UPF format
     Using radial grid of 1269 points,  4 beta functions with: 
                l(1) =   0
                l(2) =   0
                l(3) =   1
                l(4) =   1
     Q(r) pseudized with 0 coefficients 


     PseudoPot. # 2 for Pb read from file:
     /home/bond/Software/QE/qe-7.4.1/pseudo/Pb.pz-d-van.UPF
     MD5 check sum: 4e1e5920686a026ae26139ac417581ff
     Pseudo is Ultrasoft, Zval = 14.0
     Generated by new atomic code, or converted to UPF format
     Using radial grid of  899 points,  6 beta functions with: 
                l(1) =   0
                l(2) =   0
                l(3) =   1
                l(4) =   1
                l(5) =   2
                l(6) =   2
     Q(r) pseudized with  8 coefficients,  rinner =    1.000   1.000   1.000
                                                       1.000   1.000

     PseudoPot. # 3 for Ti read from file:
     /home/bond/Software/QE/qe-7.4.1/pseudo/Ti.pz-sp-van_ak.UPF
     MD5 check sum: 545d0e6e05332b8871a8093f427cb0ca
     Pseudo is Ultrasoft, Zval = 12.0
     Generated by new atomic code, or converted to UPF format
     Using radial grid of  851 points,  6 beta functions with: 
                l(1) =   0
                l(2) =   0
                l(3) =   1
                l(4) =   1
                l(5) =   2
                l(6) =   2
     Q(r) pseudized with  8 coefficients,  rinner =    1.000   1.000   1.000
                                                       1.000   1.000

     atomic species   valence    mass     pseudopotential
     O                 6.00    15.99900     O ( 1.00)
     Pb               14.00   207.20000     Pb( 1.00)
     Ti               12.00    47.86700     Ti( 1.00)

     48 Sym. Ops., with inversion, found



   Cartesian axes

     site n.     atom                  positions (alat units)
         1        Pb     tau(   1) = (   0.0000000   0.0000000   0.0000000  )
         2        Ti     tau(   2) = (   0.5000000   0.5000000   0.5000000  )
         3        O      tau(   3) = (   0.0000000   0.5000000   0.5000000  )
         4        O      tau(   4) = (   0.5000000   0.0000000   0.5000000  )
         5        O      tau(   5) = (   0.5000000   0.5000000   0.0000000  )

     number of k points=     4
                       cart. coord. in units 2pi/alat
        k(    1) = (   0.1250000   0.1250000   0.1250000), wk =   0.2500000
        k(    2) = (   0.1250000   0.1250000   0.3750000), wk =   0.7500000
        k(    3) = (   0.1250000   0.3750000   0.3750000), wk =   0.7500000
        k(    4) = (   0.3750000   0.3750000   0.3750000), wk =   0.2500000

     Dense  grid:    24303 G-vectors     FFT dimensions: (  36,  36,  36)

     Smooth grid:     8601 G-vectors     FFT dimensions: (  25,  25,  25)

     Estimated max dynamical RAM per process >      49.74 MB

     Estimated total dynamical RAM >      99.48 MB

     Initial potential from superposition of free atoms

     starting charge      42.9982, renormalised to      44.0000
     Starting wfcs are   31 randomized atomic wfcs

     total cpu time spent up to now is        1.4 secs

     Self-consistent Calculation

     iteration #  1     ecut=    30.00 Ry     beta= 0.70
     Davidson diagonalization with overlap
     ethr =  1.00E-02,  avg # of iterations =  2.0

     total cpu time spent up to now is        1.7 secs

     total energy              =    -332.61443954 Ry
     estimated scf accuracy    <       1.10272798 Ry

     iteration #  2     ecut=    30.00 Ry     beta= 0.70
     Davidson diagonalization with overlap
     ethr =  2.51E-03,  avg # of iterations =  6.5

     total cpu time spent up to now is        2.1 secs

     total energy              =    -332.36964452 Ry
     estimated scf accuracy    <       4.21760059 Ry

     iteration #  3     ecut=    30.00 Ry     beta= 0.70
     Davidson diagonalization with overlap
     ethr =  2.51E-03,  avg # of iterations =  5.5

     total cpu time spent up to now is        2.4 secs

     total energy              =    -333.15915022 Ry
     estimated scf accuracy    <       0.21569004 Ry

     iteration #  4     ecut=    30.00 Ry     beta= 0.70
     Davidson diagonalization with overlap
     ethr =  4.90E-04,  avg # of iterations =  2.0

     total cpu time spent up to now is        2.7 secs

     total energy              =    -333.15699887 Ry
     estimated scf accuracy    <       0.05834420 Ry

     iteration #  5     ecut=    30.00 Ry     beta= 0.70
     Davidson diagonalization with overlap
     ethr =  1.33E-04,  avg # of iterations =  5.2

     total cpu time spent up to now is        3.0 secs

     total energy              =    -333.18280901 Ry
     estimated scf accuracy    <       0.01999217 Ry

     iteration #  6     ecut=    30.00 Ry     beta= 0.70
     Davidson diagonalization with overlap
     ethr =  4.54E-05,  avg # of iterations =  2.5

     total cpu time spent up to now is        3.3 secs

     total energy              =    -333.18195668 Ry
     estimated scf accuracy    <       0.00628026 Ry

     iteration #  7     ecut=    30.00 Ry     beta= 0.70
     Davidson diagonalization with overlap
     ethr =  1.43E-05,  avg # of iterations =  4.8

     total cpu time spent up to now is        3.6 secs

     total energy              =    -333.18418380 Ry
     estimated scf accuracy    <       0.00057370 Ry

     iteration #  8     ecut=    30.00 Ry     beta= 0.70
     Davidson diagonalization with overlap
     ethr =  1.30E-06,  avg # of iterations =  1.8

     total cpu time spent up to now is        3.8 secs

     total energy              =    -333.18406764 Ry
     estimated scf accuracy    <       0.00045033 Ry

     iteration #  9     ecut=    30.00 Ry     beta= 0.70
     Davidson diagonalization with overlap
     ethr =  1.02E-06,  avg # of iterations =  4.2

     total cpu time spent up to now is        4.1 secs

     total energy              =    -333.18409914 Ry
     estimated scf accuracy    <       0.00005284 Ry

     iteration # 10     ecut=    30.00 Ry     beta= 0.70
     Davidson diagonalization with overlap
     ethr =  1.20E-07,  avg # of iterations =  4.8

     total cpu time spent up to now is        4.5 secs

     total energy              =    -333.18412928 Ry
     estimated scf accuracy    <       0.00001245 Ry

     iteration # 11     ecut=    30.00 Ry     beta= 0.70
     Davidson diagonalization with overlap
     ethr =  2.83E-08,  avg # of iterations =  1.0

     total cpu time spent up to now is        4.7 secs

     total energy              =    -333.18412577 Ry
     estimated scf accuracy    <       0.00001036 Ry

     iteration # 12     ecut=    30.00 Ry     beta= 0.70
     Davidson diagonalization with overlap
     ethr =  2.35E-08,  avg # of iterations =  4.2

     total cpu time spent up to now is        5.0 secs

     total energy              =    -333.18412726 Ry
     estimated scf accuracy    <       0.00000015 Ry

     iteration # 13     ecut=    30.00 Ry     beta= 0.70
     Davidson diagonalization with overlap
     ethr =  3.45E-10,  avg # of iterations =  6.0

     total cpu time spent up to now is        5.4 secs

     total energy              =    -333.18412745 Ry
     estimated scf accuracy    <       0.00000045 Ry

     iteration # 14     ecut=    30.00 Ry     beta= 0.70
     Davidson diagonalization with overlap
     ethr =  3.45E-10,  avg # of iterations =  4.2

     total cpu time spent up to now is        5.7 secs

     End of self-consistent calculation

          k = 0.1250 0.1250 0.1250 (  1084 PWs)   bands (ev):

   -44.4603 -21.0778 -21.0765 -21.0765  -6.2155  -5.1208  -5.1208  -3.7723
    -3.7723  -3.7579  -3.5895  -3.5895   4.8274   7.4422   7.4422   8.2564
     9.2938   9.2938  10.0474  10.1322  10.1322  10.2759

          k = 0.1250 0.1250 0.3750 (  1079 PWs)   bands (ev):

   -44.4589 -21.1372 -21.0746 -21.0742  -5.7973  -4.9989  -4.9379  -3.8363
    -3.7675  -3.7553  -3.6897  -3.5557   4.0752   6.9761   7.4649   7.9983
     8.6092   8.8910   9.5545  10.1021  10.2753  11.0644

          k = 0.1250 0.3750 0.3750 (  1077 PWs)   bands (ev):

   -44.4576 -21.1344 -21.1331 -21.0722  -5.5765  -4.8578  -4.7860  -3.8087
    -3.7638  -3.7096  -3.6176  -3.4665   3.6891   6.9567   6.9655   7.3125
     7.6252   8.8411   9.6155   9.6345  10.2316  10.8951

          k = 0.3750 0.3750 0.3750 (  1070 PWs)   bands (ev):

   -44.4562 -21.1314 -21.1307 -21.1307  -5.1589  -4.9826  -4.9826  -3.7163
    -3.7163  -3.4239  -3.3558  -3.3558   4.3115   6.0551   6.0551   6.8672
     7.1616   7.1616   8.1569  10.8499  10.8499  10.9246

     highest occupied level (ev):    11.0644

!    total energy              =    -333.18412749 Ry
     estimated scf accuracy    <          9.0E-09 Ry

     The total energy is the sum of the following terms:
     one-electron contribution =     -75.13382221 Ry
     hartree contribution      =      65.83628366 Ry
     xc contribution           =     -49.68469813 Ry
     ewald contribution        =    -274.20189080 Ry

     convergence has been achieved in  14 iterations

     Forces acting on atoms (cartesian axes, Ry/au):

     atom    1 type  2   force =     0.00000000    0.00000000    0.00000000
     atom    2 type  3   force =     0.00000000    0.00000000    0.00000000
     atom    3 type  1   force =     0.00000000    0.00000000    0.00000000
     atom    4 type  1   force =     0.00000000    0.00000000    0.00000000
     atom    5 type  1   force =     0.00000000    0.00000000    0.00000000

     Total force =     0.000000     Total SCF correction =     0.000000


     Computing stress (Cartesian axis) and pressure

          total   stress  (Ry/bohr**3)                   (kbar)     P=        5.02
   0.00003413   0.00000000   0.00000000            5.02        0.00        0.00
   0.00000000   0.00003413   0.00000000            0.00        5.02        0.00
   0.00000000   0.00000000   0.00003413            0.00        0.00        5.02

     Message from routine punch:
     Nothing written, as per user request (disk_io='none')

     init_run     :      0.88s CPU      0.92s WALL (       1 calls)
     electrons    :      4.17s CPU      4.28s WALL (       1 calls)
     forces       :      0.13s CPU      0.13s WALL (       1 calls)
     stress       :      1.08s CPU      1.09s WALL (       1 calls)

     Called by init_run:
     wfcinit      :      0.05s CPU      0.05s WALL (       1 calls)
     potinit      :      0.08s CPU      0.08s WALL (       1 calls)
     hinit0       :      0.59s CPU      0.60s WALL (       1 calls)

     Called by electrons:
     c_bands      :      1.34s CPU      1.42s WALL (      14 calls)
     sum_band     :      1.60s CPU      1.62s WALL (      14 calls)
     v_of_rho     :      0.03s CPU      0.03s WALL (      15 calls)
     newd         :      1.24s CPU      1.26s WALL (      15 calls)
     mix_rho      :      0.02s CPU      0.03s WALL (      14 calls)

     Called by c_bands:
     init_us_2    :      0.05s CPU      0.05s WALL (     124 calls)
     cegterg      :      1.24s CPU      1.33s WALL (      56 calls)

     Called by *egterg:
     cdiaghg      :      0.17s CPU      0.18s WALL (     275 calls)
     h_psi        :      0.88s CPU      0.95s WALL (     279 calls)
     s_psi        :      0.04s CPU      0.04s WALL (     279 calls)
     g_psi        :      0.01s CPU      0.01s WALL (     219 calls)

     Called by h_psi:
     h_psi:calbec :      0.07s CPU      0.07s WALL (     279 calls)
     vloc_psi     :      0.76s CPU      0.82s WALL (     279 calls)
     add_vuspsi   :      0.04s CPU      0.05s WALL (     279 calls)

     General routines
     calbec       :      0.10s CPU      0.11s WALL (     403 calls)
     fft          :      0.23s CPU      0.23s WALL (      93 calls)
     ffts         :      0.04s CPU      0.04s WALL (      29 calls)
     fftw         :      0.75s CPU      0.81s WALL (    8434 calls)
     interpolate  :      0.05s CPU      0.05s WALL (      15 calls)

     Parallel routines

     PWSCF        :      6.74s CPU      6.91s WALL


   This run was terminated on:  12:11:51  21Oct2025            

=------------------------------------------------------------------------------=
   JOB DONE.
=------------------------------------------------------------------------------=
