
     Program PWSCF v.7.4.1 starts on 21Oct2025 at  0:36:45 

     This program is part of the open-source Quantum ESPRESSO suite
     for quantum simulation of materials; please cite
         "P. Giannozzi et al., J. Phys.:Condens. Matter 21 395502 (2009);
         "P. Giannozzi et al., J. Phys.:Condens. Matter 29 465901 (2017);
         "P. Giannozzi et al., J. Chem. Phys. 152 154105 (2020);
          URL http://www.quantum-espresso.org", 
     in publications or presentations arising from this work. More details at
     http://www.quantum-espresso.org/quote

     Parallel version (MPI), running on     2 processors

     MPI processes distributed on     1 nodes
     236 MiB available memory on the printing compute node when the environment starts

     Waiting for input...
     Reading input from standard input
Warning: card &CELL ignored
Warning: card / ignored

     Current dimensions of program PWSCF are:
     Max number of different atomic species (ntypx) = 10
     Max number of k-points (npk) =  40000
     Max angular momentum in pseudopotentials (lmaxx) =  4
     file Fe.pbe-nd-rrkjus.UPF: wavefunction(s)  4S renormalized
     Message from routine setup:
     using ibrav=0 with symmetry is DISCOURAGED, use correct ibrav instead

     R & G space division:  proc/nbgrp/npool/nimage =       2
     Subspace diagonalization in iterative solution of the eigenvalue problem:
     a serial algorithm will be used


     Parallelization info
     --------------------
     sticks:   dense  smooth     PW     G-vecs:    dense   smooth      PW
     Min         309     124     51                 4846     1245     341
     Max         310     125     52                 4847     1246     342
     Sum         619     249    103                 9693     2491     683

     Using Slab Decomposition



     bravais-lattice index     =            0
     lattice parameter (alat)  =       5.2370  a.u.
     unit-cell volume          =     110.5647 (a.u.)^3
     number of atoms/cell      =            1
     number of atomic types    =            1
     number of electrons       =         8.00
     number of Kohn-Sham states=            8
     kinetic-energy cutoff     =      30.0000  Ry
     charge density cutoff     =     300.0000  Ry
     scf convergence threshold =      1.0E-07
     mixing beta               =       0.5000
     number of iterations used =            8  plain     mixing
     Exchange-correlation=  SLA  PW   PBE  PBE
                           (   1   4   3   4   0   0   0)

     celldm(1)=   5.236963  celldm(2)=   0.000000  celldm(3)=   0.000000
     celldm(4)=   0.000000  celldm(5)=   0.000000  celldm(6)=   0.000000

     crystal axes: (cart. coord. in units of alat)
               a(1) = (  -0.577350   0.577350   0.577350 )  
               a(2) = (   0.577350  -0.577350   0.577350 )  
               a(3) = (   0.577350   0.577350  -0.577350 )  

     reciprocal axes: (cart. coord. in units 2 pi/alat)
               b(1) = (  0.000000  0.866025  0.866025 )  
               b(2) = (  0.866025  0.000000  0.866025 )  
               b(3) = (  0.866025  0.866025  0.000000 )  


     PseudoPot. # 1 for Fe read from file:
     /home/bond/Software/QE/qe-7.4.1/pseudo/Fe.pbe-nd-rrkjus.UPF
     MD5 check sum: 398036227a04b607635f6f5e8dfd8242
     Pseudo is Ultrasoft + core correction, Zval =  8.0
     Generated by new atomic code, or converted to UPF format
     Using radial grid of  957 points,  6 beta functions with: 
                l(1) =   0
                l(2) =   0
                l(3) =   1
                l(4) =   1
                l(5) =   2
                l(6) =   2
     Q(r) pseudized with 0 coefficients 


     atomic species   valence    mass     pseudopotential
     Fe                8.00    55.84500     Fe( 1.00)

     Starting magnetic structure 
     atomic species   magnetization
     Fe              0.700

     48 Sym. Ops., with inversion, found



   Cartesian axes

     site n.     atom                  positions (alat units)
         1        Fe     tau(   1) = (   0.0000000   0.0000000   0.0000000  )

     number of k points=   104  Methfessel-Paxton smearing, width (Ry)=  0.0200

     Number of k-points >= 100: set verbosity='high' to print them.

     Dense  grid:     9693 G-vectors     FFT dimensions: (  30,  30,  30)

     Smooth grid:     2491 G-vectors     FFT dimensions: (  20,  20,  20)

     Estimated max dynamical RAM per process >      25.22 MB

     Estimated total dynamical RAM >      50.44 MB

     Check: negative core charge=   -0.000016
     Generating pointlists ...
     new r_m :   0.4125 (alat units)  2.1602 (a.u.) for type    1

     Initial potential from superposition of free atoms

     starting charge       7.9994, renormalised to       8.0000
     Starting wfcs are    6 randomized atomic wfcs +    2 random wfcs

     total cpu time spent up to now is        1.2 secs

     Self-consistent Calculation

     iteration #  1     ecut=    30.00 Ry     beta= 0.50
     Davidson diagonalization with overlap
     ethr =  1.00E-02,  avg # of iterations =  4.3

     total cpu time spent up to now is        2.5 secs

     total energy              =     -55.59904574 Ry
     estimated scf accuracy    <       0.38600826 Ry

     total magnetization       =     3.61 Bohr mag/cell
     absolute magnetization    =     3.61 Bohr mag/cell

     iteration #  2     ecut=    30.00 Ry     beta= 0.50
     Davidson diagonalization with overlap
     ethr =  4.83E-03,  avg # of iterations =  1.9

     total cpu time spent up to now is        3.4 secs

     total energy              =     -55.72301930 Ry
     estimated scf accuracy    <       0.15073222 Ry

     total magnetization       =     3.06 Bohr mag/cell
     absolute magnetization    =     3.08 Bohr mag/cell

     iteration #  3     ecut=    30.00 Ry     beta= 0.50
     Davidson diagonalization with overlap
     ethr =  1.88E-03,  avg # of iterations =  1.0

     total cpu time spent up to now is        4.2 secs

     total energy              =     -55.76033542 Ry
     estimated scf accuracy    <       0.00485662 Ry

     total magnetization       =     3.15 Bohr mag/cell
     absolute magnetization    =     3.21 Bohr mag/cell

     iteration #  4     ecut=    30.00 Ry     beta= 0.50
     Davidson diagonalization with overlap
     ethr =  6.07E-05,  avg # of iterations =  3.2

     total cpu time spent up to now is        5.3 secs

     total energy              =     -55.76588001 Ry
     estimated scf accuracy    <       0.00043618 Ry

     total magnetization       =     2.89 Bohr mag/cell
     absolute magnetization    =     3.11 Bohr mag/cell

     iteration #  5     ecut=    30.00 Ry     beta= 0.50
     Davidson diagonalization with overlap
     ethr =  5.45E-06,  avg # of iterations =  5.2

     total cpu time spent up to now is        6.5 secs

     total energy              =     -55.76622669 Ry
     estimated scf accuracy    <       0.00004641 Ry

     total magnetization       =     2.85 Bohr mag/cell
     absolute magnetization    =     3.12 Bohr mag/cell

     iteration #  6     ecut=    30.00 Ry     beta= 0.50
     Davidson diagonalization with overlap
     ethr =  5.80E-07,  avg # of iterations =  3.6

     total cpu time spent up to now is        7.7 secs

     total energy              =     -55.76628007 Ry
     estimated scf accuracy    <       0.00003538 Ry

     total magnetization       =     2.86 Bohr mag/cell
     absolute magnetization    =     3.13 Bohr mag/cell

     iteration #  7     ecut=    30.00 Ry     beta= 0.50
     Davidson diagonalization with overlap
     ethr =  4.42E-07,  avg # of iterations =  1.9

     total cpu time spent up to now is        8.5 secs

     total energy              =     -55.76630686 Ry
     estimated scf accuracy    <       0.00000538 Ry

     total magnetization       =     2.85 Bohr mag/cell
     absolute magnetization    =     3.14 Bohr mag/cell

     iteration #  8     ecut=    30.00 Ry     beta= 0.50
     Davidson diagonalization with overlap
     ethr =  6.72E-08,  avg # of iterations =  2.1

     total cpu time spent up to now is        9.4 secs

     total energy              =     -55.76630746 Ry
     estimated scf accuracy    <       0.00000299 Ry

     total magnetization       =     2.85 Bohr mag/cell
     absolute magnetization    =     3.14 Bohr mag/cell

     iteration #  9     ecut=    30.00 Ry     beta= 0.50
     Davidson diagonalization with overlap
     ethr =  3.73E-08,  avg # of iterations =  2.0

     total cpu time spent up to now is       10.2 secs

     total energy              =     -55.76630853 Ry
     estimated scf accuracy    <       0.00000012 Ry

     total magnetization       =     2.85 Bohr mag/cell
     absolute magnetization    =     3.14 Bohr mag/cell

     iteration # 10     ecut=    30.00 Ry     beta= 0.50
     Davidson diagonalization with overlap
     ethr =  1.53E-09,  avg # of iterations =  5.2

     Magnetic moment per site  (integrated on atomic sphere of radius R)
     atom   1 (R=0.413)  charge=  6.6835  magn=  2.9896

     total cpu time spent up to now is       11.5 secs

     End of self-consistent calculation

     Number of k-points >= 100: set verbosity='high' to print the bands.

     the Fermi energy is     8.5588 ev

!    total energy              =     -55.76630880 Ry
     estimated scf accuracy    <          8.4E-09 Ry
     smearing contrib. (-TS)   =       0.00000247 Ry
     internal energy E=F+TS    =     -55.76631127 Ry

     The total energy is F=E-TS. E is the sum of the following terms:
     one-electron contribution =       0.52718460 Ry
     hartree contribution      =       8.55130922 Ry
     xc contribution           =     -26.32881696 Ry
     ewald contribution        =     -38.51598813 Ry

     total magnetization       =     2.85 Bohr mag/cell
     absolute magnetization    =     3.14 Bohr mag/cell

     convergence has been achieved in  10 iterations

     Forces acting on atoms (cartesian axes, Ry/au):

     atom    1 type  1   force =     0.00000000    0.00000000    0.00000000

     Total force =     0.000000     Total SCF correction =     0.000000


     Computing stress (Cartesian axis) and pressure

          total   stress  (Ry/bohr**3)                   (kbar)     P=     -259.71
  -0.00176544  -0.00000000  -0.00000000         -259.71       -0.00       -0.00
  -0.00000000  -0.00176544  -0.00000000           -0.00     -259.71       -0.00
  -0.00000000  -0.00000000  -0.00176544           -0.00       -0.00     -259.71

     Message from routine punch:
     Nothing written, as per user request (disk_io='none')

     init_run     :      0.85s CPU      0.98s WALL (       1 calls)
     electrons    :      9.02s CPU     10.30s WALL (       1 calls)
     forces       :      0.08s CPU      0.08s WALL (       1 calls)
     stress       :      0.46s CPU      0.46s WALL (       1 calls)

     Called by init_run:
     wfcinit      :      0.34s CPU      0.43s WALL (       1 calls)
     potinit      :      0.17s CPU      0.19s WALL (       1 calls)
     hinit0       :      0.30s CPU      0.30s WALL (       1 calls)

     Called by electrons:
     c_bands      :      7.16s CPU      8.21s WALL (      10 calls)
     sum_band     :      1.43s CPU      1.65s WALL (      10 calls)
     v_of_rho     :      0.22s CPU      0.24s WALL (      11 calls)
     newd         :      0.24s CPU      0.25s WALL (      11 calls)
     mix_rho      :      0.01s CPU      0.01s WALL (      10 calls)

     Called by c_bands:
     init_us_2    :      0.26s CPU      0.30s WALL (    4784 calls)
     cegterg      :      6.64s CPU      7.61s WALL (    2080 calls)

     Called by *egterg:
     cdiaghg      :      0.79s CPU      0.92s WALL (    8443 calls)
     h_psi        :      5.23s CPU      6.01s WALL (    8651 calls)
     s_psi        :      0.09s CPU      0.10s WALL (    8651 calls)
     g_psi        :      0.03s CPU      0.03s WALL (    6363 calls)

     Called by h_psi:
     h_psi:calbec :      0.28s CPU      0.32s WALL (    8651 calls)
     vloc_psi     :      4.76s CPU      5.47s WALL (    8651 calls)
     add_vuspsi   :      0.10s CPU      0.12s WALL (    8651 calls)

     General routines
     calbec       :      0.38s CPU      0.44s WALL (   14267 calls)
     fft          :      0.21s CPU      0.22s WALL (     313 calls)
     ffts         :      0.13s CPU      0.15s WALL (      42 calls)
     fftw         :      4.55s CPU      5.27s WALL (  107334 calls)
     interpolate  :      0.14s CPU      0.15s WALL (      22 calls)

     Parallel routines

     PWSCF        :     10.57s CPU     12.00s WALL


   This run was terminated on:   0:36:57  21Oct2025            

=------------------------------------------------------------------------------=
   JOB DONE.
=------------------------------------------------------------------------------=
