LAMMPS (22 Jul 2025 - Update 1)
Reading data file ...
  orthogonal box = (0 0 0) to (12.244965 8.6584976 4.8861659)
  1 by 1 by 1 MPI processor grid
  reading atoms ...
  27 atoms
  read_data CPU = 0.001 seconds
Reading eam/alloy potential file /home/bond/Software/LAMMPS/lammps-22Jul2025/potentials/Al_zhou.eam.alloy with DATE: 2007-10-12
WARNING: No fixes with time integration, atoms won't move
For more information see https://docs.lammps.org/err0028 (../verlet.cpp:60)
Neighbor list info ...
  update: every = 1 steps, delay = 0 steps, check = yes
  max neighbors/atom: 2000, page size: 100000
  master list distance cutoff = 12.1025
  ghost atom cutoff = 12.1025
  binsize = 6.05125, bins = 3 2 1
  1 neighbor lists, perpetual/occasional/extra = 1 0 0
  (1) pair eam/alloy, perpetual
      attributes: half, newton on
      pair build: half/bin/atomonly/newton
      stencil: half/bin/3d
      bin: standard
Setting up Verlet run ...
  Unit style    : metal
  Current step  : 0
  Time step     : 0.001
Per MPI rank memory allocation (min/avg/max) = 3.312 | 3.312 | 3.312 Mbytes
   Step         PotEng           Lx             Ly             Lz           Press           Pxx            Pyy            Pzz      
         0  -82.955055      12.244965      8.6584976      4.8861659     -76981.699     -101246.75     -97583.598     -32114.746    
Loop time of 2.191e-06 on 1 procs for 0 steps with 27 atoms

136.9% CPU use with 1 MPI tasks x no OpenMP threads

MPI task timing breakdown:
Section |  min time  |  avg time  |  max time  |%varavg| %total
---------------------------------------------------------------
Pair    | 0          | 0          | 0          |   0.0 |  0.00
Neigh   | 0          | 0          | 0          |   0.0 |  0.00
Comm    | 0          | 0          | 0          |   0.0 |  0.00
Output  | 0          | 0          | 0          |   0.0 |  0.00
Modify  | 0          | 0          | 0          |   0.0 |  0.00
Other   |            | 2.191e-06  |            |       |100.00

Nlocal:             27 ave          27 max          27 min
Histogram: 1 0 0 0 0 0 0 0 0 0
Nghost:            264 ave         264 max         264 min
Histogram: 1 0 0 0 0 0 0 0 0 0
Neighs:           1503 ave        1503 max        1503 min
Histogram: 1 0 0 0 0 0 0 0 0 0

Total # of neighbors = 1503
Ave neighs/atom = 55.666667
Neighbor list builds = 0
Dangerous builds = 0
Setting up cg style minimization ...
  Unit style    : metal
  Current step  : 0
Per MPI rank memory allocation (min/avg/max) = 4.437 | 4.437 | 4.437 Mbytes
   Step         PotEng           Lx             Ly             Lz           Press           Pxx            Pyy            Pzz      
         0  -82.955055      12.244965      8.6584976      4.8861659     -76981.699     -101246.75     -97583.598     -32114.746    
         3  -83.309894      12.244965      8.6584976      4.8861659     -46782.277     -70107.741     -70239.095      0.0038109967 
Loop time of 0.000633096 on 1 procs for 3 steps with 27 atoms

0.0% CPU use with 1 MPI tasks x no OpenMP threads

Minimization stats:
  Stopping criterion = energy tolerance
  Energy initial, next-to-last, final = 
     -82.9550545953689  -83.3098941947701   -83.309894199681
  Force two-norm initial, final = 1.6960328 7.1887875e-06
  Force max component initial, final = 0.39977231 2.0449438e-06
  Final line search alpha, max atom move = 1 2.0449438e-06
  Iterations, force evaluations = 3 6

MPI task timing breakdown:
Section |  min time  |  avg time  |  max time  |%varavg| %total
---------------------------------------------------------------
Pair    | 0.0005845  | 0.0005845  | 0.0005845  |   0.0 | 92.32
Neigh   | 0          | 0          | 0          |   0.0 |  0.00
Comm    | 1.174e-05  | 1.174e-05  | 1.174e-05  |   0.0 |  1.85
Output  | 0          | 0          | 0          |   0.0 |  0.00
Modify  | 0          | 0          | 0          |   0.0 |  0.00
Other   |            | 3.685e-05  |            |       |  5.82

Nlocal:             27 ave          27 max          27 min
Histogram: 1 0 0 0 0 0 0 0 0 0
Nghost:            264 ave         264 max         264 min
Histogram: 1 0 0 0 0 0 0 0 0 0
Neighs:           1503 ave        1503 max        1503 min
Histogram: 1 0 0 0 0 0 0 0 0 0

Total # of neighbors = 1503
Ave neighs/atom = 55.666667
Neighbor list builds = 0
Dangerous builds = 0
Total energy (eV) = -83.309894199681
Number of atoms = 27
Lattice constant (Angstoms) = 12.2449647145904
Total wall time: 0:00:00
