LAMMPS (22 Jul 2025 - Update 1)
Reading data file ...
  orthogonal box = (0 0 0) to (12.367569 8.7451919 20.372596)
  1 by 1 by 1 MPI processor grid
  reading atoms ...
  36 atoms
  read_data CPU = 0.001 seconds
WARNING: No fixes with time integration, atoms won't move
For more information see https://docs.lammps.org/err0028 (../verlet.cpp:60)
Generated 0 of 0 mixed pair_coeff terms from geometric mixing rule
Neighbor list info ...
  update: every = 1 steps, delay = 0 steps, check = yes
  max neighbors/atom: 2000, page size: 100000
  master list distance cutoff = 6.5
  ghost atom cutoff = 6.5
  binsize = 3.25, bins = 4 3 7
  1 neighbor lists, perpetual/occasional/extra = 1 0 0
  (1) pair lj/cut, perpetual
      attributes: half, newton on
      pair build: half/bin/atomonly/newton
      stencil: half/bin/3d
      bin: standard
Setting up Verlet run ...
  Unit style    : metal
  Current step  : 0
  Time step     : 0.001
Per MPI rank memory allocation (min/avg/max) = 3.053 | 3.053 | 3.053 Mbytes
   Step         PotEng           Lx             Ly             Lz           Press           Pxx            Pyy            Pzz      
         0  -70.26574       12.367569      8.7451919      20.372596      1173.8042     -3522.4518      5283.0796      1760.7848    
Loop time of 1.698e-06 on 1 procs for 0 steps with 36 atoms

117.8% CPU use with 1 MPI tasks x no OpenMP threads

MPI task timing breakdown:
Section |  min time  |  avg time  |  max time  |%varavg| %total
---------------------------------------------------------------
Pair    | 0          | 0          | 0          |   0.0 |  0.00
Neigh   | 0          | 0          | 0          |   0.0 |  0.00
Comm    | 0          | 0          | 0          |   0.0 |  0.00
Output  | 0          | 0          | 0          |   0.0 |  0.00
Modify  | 0          | 0          | 0          |   0.0 |  0.00
Other   |            | 1.698e-06  |            |       |100.00

Nlocal:             36 ave          36 max          36 min
Histogram: 1 0 0 0 0 0 0 0 0 0
Nghost:            158 ave         158 max         158 min
Histogram: 1 0 0 0 0 0 0 0 0 0
Neighs:            594 ave         594 max         594 min
Histogram: 1 0 0 0 0 0 0 0 0 0

Total # of neighbors = 594
Ave neighs/atom = 16.5
Neighbor list builds = 0
Dangerous builds = 0
Generated 0 of 0 mixed pair_coeff terms from geometric mixing rule
Setting up cg style minimization ...
  Unit style    : metal
  Current step  : 0
WARNING: Energy due to 3 extra global DOFs will be included in minimizer energies
 (../min.cpp:222)
Per MPI rank memory allocation (min/avg/max) = 4.178 | 4.178 | 4.178 Mbytes
   Step         PotEng           Lx             Ly             Lz           Press           Pxx            Pyy            Pzz      
         0  -70.26574       12.367569      8.7451919      20.372596      1173.8042     -3522.4518      5283.0796      1760.7848    
        11  -70.28123       12.361725      8.7410596      20.372596      0.1456187     -5023.9534      5024.3363      0.053943519  
Loop time of 0.000575 on 1 procs for 11 steps with 36 atoms

99.8% CPU use with 1 MPI tasks x no OpenMP threads

Minimization stats:
  Stopping criterion = energy tolerance
  Energy initial, next-to-last, final = 
     -70.2657399891571  -70.2812299557096   -70.281229955879
  Force two-norm initial, final = 1.7994896 0.00051193257
  Force max component initial, final = 1.2106741 0.00026318072
  Final line search alpha, max atom move = 1 0.00026318072
  Iterations, force evaluations = 11 22

MPI task timing breakdown:
Section |  min time  |  avg time  |  max time  |%varavg| %total
---------------------------------------------------------------
Pair    | 0.00020165 | 0.00020165 | 0.00020165 |   0.0 | 35.07
Neigh   | 0          | 0          | 0          |   0.0 |  0.00
Comm    | 2.3312e-05 | 2.3312e-05 | 2.3312e-05 |   0.0 |  4.05
Output  | 0          | 0          | 0          |   0.0 |  0.00
Modify  | 0          | 0          | 0          |   0.0 |  0.00
Other   |            | 0.00035    |            |       | 60.88

Nlocal:             36 ave          36 max          36 min
Histogram: 1 0 0 0 0 0 0 0 0 0
Nghost:            158 ave         158 max         158 min
Histogram: 1 0 0 0 0 0 0 0 0 0
Neighs:            594 ave         594 max         594 min
Histogram: 1 0 0 0 0 0 0 0 0 0

Total # of neighbors = 594
Ave neighs/atom = 16.5
Neighbor list builds = 0
Dangerous builds = 0
Total energy (eV) = -70.281229955879
Number of atoms = 36
Lattice constant (Angstoms) = 12.3617250368786
Total wall time: 0:00:00
