LAMMPS (22 Jul 2025 - Update 1)
# ---------- 1. Initialize simulation ---------------------
units metal
atom_style atomic
dimension  3
boundary   p p p
read_data /home/bond/Work/Lab1/Vacancy/EAM/relax/17/lammps.data
Reading data file ...
  orthogonal box = (0 0 0) to (69.388133 69.388133 69.388133)
  1 by 1 by 1 MPI processor grid
  reading atoms ...
  19651 atoms
  read_data CPU = 0.059 seconds

# ---------- 2. Specify interatomic potential ---------------------
pair_style eam/alloy
pair_coeff * * /home/bond/Software/LAMMPS/lammps-22Jul2025/potentials/Al_zhou.eam.alloy  Al
Reading eam/alloy potential file /home/bond/Software/LAMMPS/lammps-22Jul2025/potentials/Al_zhou.eam.alloy with DATE: 2007-10-12

# pair_style lj/cut 4.5
# pair_coeff 1 1 0.392 2.620 4.5

# ---------- 3. Run single point calculation  ---------------------
thermo_style custom step pe lx ly lz press pxx pyy pzz
run 0
WARNING: No fixes with time integration, atoms won't move
For more information see https://docs.lammps.org/err0028 (../verlet.cpp:60)
Neighbor list info ...
  update: every = 1 steps, delay = 0 steps, check = yes
  max neighbors/atom: 2000, page size: 100000
  master list distance cutoff = 12.1025
  ghost atom cutoff = 12.1025
  binsize = 6.05125, bins = 12 12 12
  1 neighbor lists, perpetual/occasional/extra = 1 0 0
  (1) pair eam/alloy, perpetual
      attributes: half, newton on
      pair build: half/bin/atomonly/newton
      stencil: half/bin/3d
      bin: standard
Per MPI rank memory allocation (min/avg/max) = 25.99 | 25.99 | 25.99 Mbytes
   Step         PotEng           Lx             Ly             Lz           Press           Pxx            Pyy            Pzz      
         0  -70349.747      69.388133      69.388133      69.388133     -14.491044     -14.491047     -14.491037     -14.491047    
Loop time of 1.542e-06 on 1 procs for 0 steps with 19651 atoms

194.6% CPU use with 1 MPI tasks x no OpenMP threads

MPI task timing breakdown:
Section |  min time  |  avg time  |  max time  |%varavg| %total
---------------------------------------------------------------
Pair    | 0          | 0          | 0          |   0.0 |  0.00
Neigh   | 0          | 0          | 0          |   0.0 |  0.00
Comm    | 0          | 0          | 0          |   0.0 |  0.00
Output  | 0          | 0          | 0          |   0.0 |  0.00
Modify  | 0          | 0          | 0          |   0.0 |  0.00
Other   |            | 1.542e-06  |            |       |100.00

Nlocal:          19651 ave       19651 max       19651 min
Histogram: 1 0 0 0 0 0 0 0 0 0
Nghost:          25903 ave       25903 max       25903 min
Histogram: 1 0 0 0 0 0 0 0 0 0
Neighs:     4.2051e+06 ave  4.2051e+06 max  4.2051e+06 min
Histogram: 1 0 0 0 0 0 0 0 0 0

Total # of neighbors = 4205100
Ave neighs/atom = 213.98911
Neighbor list builds = 0
Dangerous builds = 0
# -- include optimization of the unit cell parameter
fix 1 all box/relax iso 0.0 vmax 0.001

# -- enable optimization of atomic positions (and the cell)
min_style cg
minimize 1e-10 1e-10 1000 10000
WARNING: Energy due to 1 extra global DOFs will be included in minimizer energies
 (../min.cpp:222)
Per MPI rank memory allocation (min/avg/max) = 29.36 | 29.36 | 29.36 Mbytes
   Step         PotEng           Lx             Ly             Lz           Press           Pxx            Pyy            Pzz      
         0  -70349.747      69.388133      69.388133      69.388133     -14.491044     -14.491047     -14.491037     -14.491047    
         5  -70349.824      69.387723      69.387723      69.387723     -0.16554812    -0.16555003    -0.16554428    -0.16555003   
Loop time of 2.32659 on 1 procs for 5 steps with 19651 atoms

98.8% CPU use with 1 MPI tasks x no OpenMP threads

Minimization stats:
  Stopping criterion = energy tolerance
  Energy initial, next-to-last, final = 
     -70349.7466319377   -70349.823817287  -70349.8238173816
  Force two-norm initial, final = 9.0987843 0.28781754
  Force max component initial, final = 9.0649658 0.10355847
  Final line search alpha, max atom move = 0.0013602837 0.00014086889
  Iterations, force evaluations = 5 10

MPI task timing breakdown:
Section |  min time  |  avg time  |  max time  |%varavg| %total
---------------------------------------------------------------
Pair    | 2.3082     | 2.3082     | 2.3082     |   0.0 | 99.21
Neigh   | 0          | 0          | 0          |   0.0 |  0.00
Comm    | 0.0025818  | 0.0025818  | 0.0025818  |   0.0 |  0.11
Output  | 0          | 0          | 0          |   0.0 |  0.00
Modify  | 0          | 0          | 0          |   0.0 |  0.00
Other   |            | 0.01585    |            |       |  0.68

Nlocal:          19651 ave       19651 max       19651 min
Histogram: 1 0 0 0 0 0 0 0 0 0
Nghost:          25903 ave       25903 max       25903 min
Histogram: 1 0 0 0 0 0 0 0 0 0
Neighs:     4.2051e+06 ave  4.2051e+06 max  4.2051e+06 min
Histogram: 1 0 0 0 0 0 0 0 0 0

Total # of neighbors = 4205100
Ave neighs/atom = 213.98911
Neighbor list builds = 0
Dangerous builds = 0

# ---- 4. Define and print useful variables -------------
variable natoms equal "count(all)"
variable totenergy equal "pe"
variable length equal "lx"

print "Total energy (eV) = ${totenergy}"
Total energy (eV) = -70349.8238173816
print "Number of atoms = ${natoms}"
Number of atoms = 19651
print "Lattice constant (Angstoms) = ${length}"
Lattice constant (Angstoms) = 69.3877229647279
Total wall time: 0:00:03
