
     Program PWSCF v.7.4.1 starts on  8Oct2025 at  2: 6:29 

     This program is part of the open-source Quantum ESPRESSO suite
     for quantum simulation of materials; please cite
         "P. Giannozzi et al., J. Phys.:Condens. Matter 21 395502 (2009);
         "P. Giannozzi et al., J. Phys.:Condens. Matter 29 465901 (2017);
         "P. Giannozzi et al., J. Chem. Phys. 152 154105 (2020);
          URL http://www.quantum-espresso.org", 
     in publications or presentations arising from this work. More details at
     http://www.quantum-espresso.org/quote

     Parallel version (MPI), running on     1 processors

     MPI processes distributed on     1 nodes
     467 MiB available memory on the printing compute node when the environment starts

     Waiting for input...
     Reading input from standard input
Warning: card &CELL ignored
Warning: card / ignored

     Current dimensions of program PWSCF are:
     Max number of different atomic species (ntypx) = 10
     Max number of k-points (npk) =  40000
     Max angular momentum in pseudopotentials (lmaxx) =  4
     Message from routine setup:
     using ibrav=0 with symmetry is DISCOURAGED, use correct ibrav instead

     Subspace diagonalization in iterative solution of the eigenvalue problem:
     a serial algorithm will be used


     G-vector sticks info
     --------------------
     sticks:   dense  smooth     PW     G-vecs:    dense   smooth      PW
     Sum         379     379    121                 5029     5029     941

     Using Slab Decomposition



     bravais-lattice index     =            0
     lattice parameter (alat)  =       7.5126  a.u.
     unit-cell volume          =     299.8200 (a.u.)^3
     number of atoms/cell      =            2
     number of atomic types    =            1
     number of electrons       =        28.00
     number of Kohn-Sham states=           14
     kinetic-energy cutoff     =      25.0000  Ry
     charge density cutoff     =     100.0000  Ry
     scf convergence threshold =      1.0E-07
     mixing beta               =       0.5000
     number of iterations used =            8  plain     mixing
     Exchange-correlation=  SLA  PZ   NOGX NOGC
                           (   1   1   0   0   0   0   0)

     celldm(1)=   7.512628  celldm(2)=   0.000000  celldm(3)=   0.000000
     celldm(4)=   0.000000  celldm(5)=   0.000000  celldm(6)=   0.000000

     crystal axes: (cart. coord. in units of alat)
               a(1) = (   0.000000   0.707107   0.707107 )  
               a(2) = (   0.707107   0.000000   0.707107 )  
               a(3) = (   0.707107   0.707107   0.000000 )  

     reciprocal axes: (cart. coord. in units 2 pi/alat)
               b(1) = ( -0.707107  0.707107  0.707107 )  
               b(2) = (  0.707107 -0.707107  0.707107 )  
               b(3) = (  0.707107  0.707107 -0.707107 )  


     PseudoPot. # 1 for Ge read from file:
     /home/bond/Software/QE/qe-7.4.1/pseudo/ge_lda_v1.4.uspp.F.UPF
     MD5 check sum: bf9d52b59cc8a669818bb2b52e0c2ba0
     Pseudo is Ultrasoft + core correction, Zval = 14.0
     Generated by new atomic code, or converted to UPF format
     Using radial grid of  873 points,  6 beta functions with: 
                l(1) =   0
                l(2) =   0
                l(3) =   1
                l(4) =   1
                l(5) =   2
                l(6) =   2
     Q(r) pseudized with  8 coefficients,  rinner =    1.400   1.400   1.400
                                                       1.400   1.400

     atomic species   valence    mass     pseudopotential
     Ge               14.00    72.63000     Ge( 1.00)

     24 Sym. Ops. (no inversion) found



   Cartesian axes

     site n.     atom                  positions (alat units)
         1        Ge     tau(   1) = (   0.0000000   0.0000000   0.0000000  )
         2        Ge     tau(   2) = (   0.3535545   0.3535545   0.3535545  )

     number of k points=    47
                       cart. coord. in units 2pi/alat
        k(    1) = (   0.0000000   0.0000000   0.0000000), wk =   0.0020000
        k(    2) = (   0.0707107   0.0707107  -0.0707107), wk =   0.0160000
        k(    3) = (   0.1414214   0.1414214  -0.1414214), wk =   0.0160000
        k(    4) = (   0.2121320   0.2121320  -0.2121320), wk =   0.0160000
        k(    5) = (   0.2828427   0.2828427  -0.2828427), wk =   0.0160000
        k(    6) = (  -0.3535534  -0.3535534   0.3535534), wk =   0.0080000
        k(    7) = (   0.1414214   0.0000000   0.0000000), wk =   0.0120000
        k(    8) = (   0.2121320   0.0707107  -0.0707107), wk =   0.0480000
        k(    9) = (   0.2828427   0.1414214  -0.1414214), wk =   0.0480000
        k(   10) = (   0.3535534   0.2121320  -0.2121320), wk =   0.0480000
        k(   11) = (  -0.2828427  -0.4242641   0.4242641), wk =   0.0480000
        k(   12) = (  -0.2121320  -0.3535534   0.3535534), wk =   0.0480000
        k(   13) = (  -0.1414214  -0.2828427   0.2828427), wk =   0.0480000
        k(   14) = (  -0.0707107  -0.2121320   0.2121320), wk =   0.0480000
        k(   15) = (   0.0000000  -0.1414214   0.1414214), wk =   0.0240000
        k(   16) = (   0.2828427   0.0000000   0.0000000), wk =   0.0120000
        k(   17) = (   0.3535534   0.0707107  -0.0707107), wk =   0.0480000
        k(   18) = (   0.4242641   0.1414214  -0.1414214), wk =   0.0480000
        k(   19) = (  -0.2121320  -0.4949747   0.4949747), wk =   0.0480000
        k(   20) = (  -0.1414214  -0.4242641   0.4242641), wk =   0.0480000
        k(   21) = (  -0.0707107  -0.3535534   0.3535534), wk =   0.0480000
        k(   22) = (   0.0000000  -0.2828427   0.2828427), wk =   0.0240000
        k(   23) = (   0.4242641   0.0000000   0.0000000), wk =   0.0120000
        k(   24) = (   0.4949747   0.0707107  -0.0707107), wk =   0.0480000
        k(   25) = (  -0.1414214  -0.5656854   0.5656854), wk =   0.0480000
        k(   26) = (  -0.0707107  -0.4949747   0.4949747), wk =   0.0480000
        k(   27) = (  -0.0000000  -0.4242641   0.4242641), wk =   0.0240000
        k(   28) = (   0.5656854   0.0000000   0.0000000), wk =   0.0120000
        k(   29) = (  -0.0707107  -0.6363961   0.6363961), wk =   0.0480000
        k(   30) = (   0.0000000  -0.5656854   0.5656854), wk =   0.0240000
        k(   31) = (  -0.7071068   0.0000000   0.0000000), wk =   0.0060000
        k(   32) = (   0.2828427   0.1414214   0.0000000), wk =   0.0480000
        k(   33) = (   0.3535534   0.2121320  -0.0707107), wk =   0.0960000
        k(   34) = (  -0.2828427  -0.4242641   0.5656854), wk =   0.0960000
        k(   35) = (  -0.2121320  -0.3535534   0.4949747), wk =   0.0480000
        k(   36) = (   0.4242641   0.1414214  -0.0000000), wk =   0.0480000
        k(   37) = (  -0.2121320  -0.4949747   0.6363961), wk =   0.0960000
        k(   38) = (  -0.1414214  -0.4242641   0.5656854), wk =   0.0960000
        k(   39) = (  -0.0707107  -0.3535534   0.4949747), wk =   0.0960000
        k(   40) = (   0.0000000  -0.2828427   0.4242641), wk =   0.0480000
        k(   41) = (  -0.1414214  -0.5656854   0.7071068), wk =   0.0480000
        k(   42) = (  -0.0707107  -0.4949747   0.6363961), wk =   0.0960000
        k(   43) = (  -0.0000000  -0.4242641   0.5656854), wk =   0.0480000
        k(   44) = (  -0.7071068   0.1414214   0.0000000), wk =   0.0240000
        k(   45) = (  -0.1414214  -0.4242641   0.7071068), wk =   0.0480000
        k(   46) = (  -0.0707107  -0.3535534   0.6363961), wk =   0.0480000
        k(   47) = (  -0.7071068   0.2828427   0.0000000), wk =   0.0240000

     Dense  grid:     5029 G-vectors     FFT dimensions: (  24,  24,  24)

     Estimated max dynamical RAM per process >      26.11 MB

     Check: negative core charge=   -0.000678

     Initial potential from superposition of free atoms

     starting charge      27.9986, renormalised to      28.0000
     Starting wfcs are   18 randomized atomic wfcs

     total cpu time spent up to now is        1.2 secs

     Self-consistent Calculation

     iteration #  1     ecut=    25.00 Ry     beta= 0.50
     Davidson diagonalization with overlap
     ethr =  1.00E-02,  avg # of iterations =  1.8

     Threshold (ethr) on eigenvalues was too large:
     Diagonalizing with lowered threshold

     Davidson diagonalization with overlap
     ethr =  1.65E-04,  avg # of iterations =  2.0

     total cpu time spent up to now is        2.7 secs

     total energy              =    -425.92104896 Ry
     estimated scf accuracy    <       0.05009554 Ry

     iteration #  2     ecut=    25.00 Ry     beta= 0.50
     Davidson diagonalization with overlap
     ethr =  1.79E-04,  avg # of iterations =  1.0

     total cpu time spent up to now is        3.5 secs

     total energy              =    -425.92164600 Ry
     estimated scf accuracy    <       0.00674759 Ry

     iteration #  3     ecut=    25.00 Ry     beta= 0.50
     Davidson diagonalization with overlap
     ethr =  2.41E-05,  avg # of iterations =  2.0

     total cpu time spent up to now is        4.3 secs

     total energy              =    -425.92225424 Ry
     estimated scf accuracy    <       0.00011978 Ry

     iteration #  4     ecut=    25.00 Ry     beta= 0.50
     Davidson diagonalization with overlap
     ethr =  4.28E-07,  avg # of iterations =  3.8

     total cpu time spent up to now is        5.3 secs

     total energy              =    -425.92229034 Ry
     estimated scf accuracy    <       0.00000880 Ry

     iteration #  5     ecut=    25.00 Ry     beta= 0.50
     Davidson diagonalization with overlap
     ethr =  3.14E-08,  avg # of iterations =  2.7

     total cpu time spent up to now is        6.2 secs

     total energy              =    -425.92229180 Ry
     estimated scf accuracy    <       0.00000030 Ry

     iteration #  6     ecut=    25.00 Ry     beta= 0.50
     Davidson diagonalization with overlap
     ethr =  1.07E-09,  avg # of iterations =  3.5

     total cpu time spent up to now is        7.5 secs

     End of self-consistent calculation

          k = 0.0000 0.0000 0.0000 (   609 PWs)   bands (ev):

   -16.9522 -16.9522 -16.8872 -16.8872 -16.8872 -16.6700 -16.6700 -16.6700
   -16.5837 -16.5837  -4.5557   8.3568   8.3963   8.3963

          k = 0.0707 0.0707-0.0707 (   624 PWs)   bands (ev):

   -16.9520 -16.9520 -16.9209 -16.9200 -16.9200 -16.6826 -16.6826 -16.6659
   -16.6545 -16.6545  -4.4320   6.4845   8.1604   8.1607

          k = 0.1414 0.1414-0.1414 (   628 PWs)   bands (ev):

   -16.9702 -16.9702 -16.9483 -16.8971 -16.8971 -16.7051 -16.7051 -16.6604
   -16.6604 -16.6515  -4.0673   4.5220   7.7112   7.7115

          k = 0.2121 0.2121-0.2121 (   619 PWs)   bands (ev):

   -16.9776 -16.9776 -16.9435 -16.8417 -16.8417 -16.7121 -16.7121 -16.6542
   -16.6273 -16.6273  -3.4920   2.7348   7.3129   7.3131

          k = 0.2828 0.2828-0.2828 (   628 PWs)   bands (ev):

   -17.0091 -17.0091 -16.9459 -16.8285 -16.8285 -16.7348 -16.7348 -16.7273
   -16.6182 -16.6182  -2.8144   1.3085   7.0563   7.0565

          k =-0.3536-0.3536 0.3536 (   628 PWs)   bands (ev):

   -17.0110 -17.0110 -16.9635 -16.8410 -16.8410 -16.7184 -16.7184 -16.6979
   -16.6258 -16.6258  -2.4309   0.6723   6.9687   6.9690

          k = 0.1414 0.0000 0.0000 (   625 PWs)   bands (ev):

   -16.9527 -16.9431 -16.9386 -16.9386 -16.8929 -16.6996 -16.6801 -16.6575
   -16.6575 -16.6518  -4.3903   6.4357   7.7544   7.7545

          k = 0.2121 0.0707-0.0707 (   625 PWs)   bands (ev):

   -16.9779 -16.9688 -16.9370 -16.9332 -16.8570 -16.7130 -16.6844 -16.6533
   -16.6379 -16.6370  -4.1044   4.9588   7.2689   7.2949

          k = 0.2828 0.1414-0.1414 (   628 PWs)   bands (ev):

   -16.9940 -16.9856 -16.9516 -16.8925 -16.8447 -16.7367 -16.7208 -16.6584
   -16.6455 -16.6363  -3.5937   3.2389   6.7547   6.8993

          k = 0.3536 0.2121-0.2121 (   626 PWs)   bands (ev):

   -17.0060 -16.9981 -16.9379 -16.8566 -16.8277 -16.7338 -16.7308 -16.6729
   -16.6386 -16.6185  -2.9271   1.7211   6.2946   6.7130

          k =-0.2828-0.4243 0.4243 (   629 PWs)   bands (ev):

   -17.0219 -17.0154 -16.9368 -16.8289 -16.8184 -16.7572 -16.7533 -16.7144
   -16.6024 -16.6023  -2.3694   0.7649   5.9960   6.7265

          k =-0.2121-0.3536 0.3536 (   628 PWs)   bands (ev):

   -17.0104 -17.0088 -16.9374 -16.8497 -16.8259 -16.7458 -16.7420 -16.7101
   -16.6067 -16.6011  -2.5104   0.9882   5.8923   6.9318

          k =-0.1414-0.2828 0.2828 (   624 PWs)   bands (ev):

   -17.0000 -16.9924 -16.9404 -16.8643 -16.8255 -16.7465 -16.7081 -16.6712
   -16.6390 -16.6089  -3.1603   2.1933   6.0080   7.2990

          k =-0.0707-0.2121 0.2121 (   627 PWs)   bands (ev):

   -16.9845 -16.9786 -16.9559 -16.9008 -16.8452 -16.7299 -16.7086 -16.6590
   -16.6576 -16.6312  -3.7884   3.7916   6.3783   7.7615

          k = 0.0000-0.1414 0.1414 (   626 PWs)   bands (ev):

   -16.9595 -16.9564 -16.9495 -16.9202 -16.8956 -16.7085 -16.6752 -16.6679
   -16.6462 -16.6424  -4.2272   5.4054   7.1116   8.1534

          k = 0.2828 0.0000 0.0000 (   641 PWs)   bands (ev):

   -17.0060 -17.0060 -16.9657 -16.9397 -16.8327 -16.7560 -16.7290 -16.6886
   -16.6886 -16.6474  -3.8972   4.5343   6.7584   6.7585

          k = 0.3536 0.0707-0.0707 (   626 PWs)   bands (ev):

   -17.0102 -16.9952 -16.9300 -16.9117 -16.8091 -16.7486 -16.7162 -16.6421
   -16.6366 -16.6140  -3.4572   3.3412   6.1428   6.3724

          k = 0.4243 0.1414-0.1414 (   623 PWs)   bands (ev):

   -17.0055 -17.0044 -16.9133 -16.8729 -16.8098 -16.7517 -16.7186 -16.6636
   -16.6163 -16.6031  -2.8276   1.9990   5.4334   6.1834

          k =-0.2121-0.4950 0.4950 (   632 PWs)   bands (ev):

   -17.0238 -17.0148 -16.9146 -16.8459 -16.8257 -16.7710 -16.7523 -16.7172
   -16.6163 -16.6093  -2.1731   0.9184   4.8959   6.2133

          k =-0.1414-0.4243 0.4243 (   643 PWs)   bands (ev):

   -17.0336 -17.0283 -16.9187 -16.8570 -16.8360 -16.7995 -16.7840 -16.7202
   -16.6510 -16.6379  -2.0476   0.7413   4.6160   6.4556

          k =-0.0707-0.3536 0.3536 (   632 PWs)   bands (ev):

   -17.0221 -17.0049 -16.9222 -16.8596 -16.8174 -16.7595 -16.7579 -16.6972
   -16.6546 -16.6087  -2.6237   1.6289   4.6624   6.8747

          k = 0.0000-0.2828 0.2828 (   630 PWs)   bands (ev):

   -17.0070 -16.9811 -16.9401 -16.8960 -16.8399 -16.7615 -16.7129 -16.6853
   -16.6576 -16.6181  -3.2863   2.8136   5.1878   7.3803

          k = 0.4243 0.0000 0.0000 (   636 PWs)   bands (ev):

   -17.0254 -17.0254 -16.9325 -16.9278 -16.7900 -16.7885 -16.7608 -16.6468
   -16.6468 -16.6440  -3.0871   2.7004   5.9497   5.9498

          k = 0.4950 0.0707-0.0707 (   634 PWs)   bands (ev):

   -17.0247 -17.0243 -16.9197 -16.8917 -16.8230 -16.7877 -16.7500 -16.6767
   -16.6227 -16.6169  -2.5090   1.7160   5.3161   5.7215

          k =-0.1414-0.5657 0.5657 (   637 PWs)   bands (ev):

   -17.0307 -17.0223 -16.8959 -16.8620 -16.8221 -16.7945 -16.7652 -16.7085
   -16.6418 -16.6244  -1.8193   0.7628   4.5090   5.7182

          k =-0.0707-0.4950 0.4950 (   641 PWs)   bands (ev):

   -17.0352 -17.0273 -16.8891 -16.8458 -16.8225 -16.8190 -16.8017 -16.7102
   -16.6373 -16.6352  -1.4676   0.3504   3.9832   5.9393

          k =-0.0000-0.4243 0.4243 (   634 PWs)   bands (ev):

   -17.0222 -17.0181 -16.9077 -16.8625 -16.7933 -16.7820 -16.7789 -16.6883
   -16.6365 -16.6129  -1.9555   0.9156   3.9657   6.3534

          k = 0.5657 0.0000 0.0000 (   628 PWs)   bands (ev):

   -17.0206 -17.0206 -16.8926 -16.8447 -16.8430 -16.7796 -16.7488 -16.6785
   -16.5998 -16.5998  -1.9813   0.9665   5.4410   5.4411

          k =-0.0707-0.6364 0.6364 (   636 PWs)   bands (ev):

   -17.0247 -17.0168 -16.8836 -16.8535 -16.8390 -16.8002 -16.7480 -16.7162
   -16.6398 -16.6310  -1.2946   0.1466   4.8958   5.3845

          k = 0.0000-0.5657 0.5657 (   640 PWs)   bands (ev):

   -17.0345 -17.0245 -16.8664 -16.8375 -16.8291 -16.8213 -16.7930 -16.7164
   -16.6586 -16.6343  -0.8963  -0.2313   4.1851   5.5583

          k =-0.7071 0.0000 0.0000 (   636 PWs)   bands (ev):

   -17.0234 -17.0233 -16.8586 -16.8586 -16.8169 -16.8169 -16.7253 -16.7253
   -16.6631 -16.6631  -0.6140  -0.6137   5.2682   5.2683

          k = 0.2828 0.1414 0.0000 (   626 PWs)   bands (ev):

   -16.9814 -16.9802 -16.9443 -16.9209 -16.8342 -16.7343 -16.7149 -16.6568
   -16.6274 -16.6269  -3.7424   3.9126   6.1311   7.2149

          k = 0.3536 0.2121-0.0707 (   628 PWs)   bands (ev):

   -17.0096 -16.9903 -16.9373 -16.8878 -16.8267 -16.7464 -16.7235 -16.6853
   -16.6344 -16.6147  -3.1701   2.5509   5.4409   6.8304

          k =-0.2828-0.4243 0.5657 (   630 PWs)   bands (ev):

   -17.0220 -17.0082 -16.9250 -16.8524 -16.8160 -16.7592 -16.7320 -16.7222
   -16.6242 -16.6048  -2.4897   1.2841   5.1160   6.4841

          k =-0.2121-0.3536 0.4950 (   632 PWs)   bands (ev):

   -17.0247 -17.0177 -16.9166 -16.8300 -16.8263 -16.7577 -16.7489 -16.7243
   -16.6191 -16.6187  -2.0965   0.6810   5.0220   6.3518

          k = 0.4243 0.1414-0.0000 (   628 PWs)   bands (ev):

   -17.0158 -17.0123 -16.9253 -16.8867 -16.7976 -16.7717 -16.7289 -16.6628
   -16.6281 -16.6090  -2.9503   2.3923   5.3710   6.0949

          k =-0.2121-0.4950 0.6364 (   642 PWs)   bands (ev):

   -17.0353 -17.0223 -16.9248 -16.8730 -16.8253 -16.8027 -16.7640 -16.7390
   -16.6375 -16.6341  -2.2827   1.3354   4.7216   5.7806

          k =-0.1414-0.4243 0.5657 (   644 PWs)   bands (ev):

   -17.0358 -17.0341 -16.9011 -16.8483 -16.8376 -16.8183 -16.7948 -16.7465
   -16.6354 -16.6274  -1.7096   0.5641   4.2984   5.7248

          k =-0.0707-0.3536 0.4950 (   639 PWs)   bands (ev):

   -17.0327 -17.0245 -16.9051 -16.8504 -16.8156 -16.7983 -16.7869 -16.7315
   -16.6274 -16.6242  -1.8896   0.7972   4.1796   5.9590

          k = 0.0000-0.2828 0.4243 (   636 PWs)   bands (ev):

   -17.0341 -17.0115 -16.9177 -16.8835 -16.8041 -16.7888 -16.7462 -16.7232
   -16.6448 -16.6151  -2.5558   1.6942   4.5092   6.3962

          k =-0.1414-0.5657 0.7071 (   642 PWs)   bands (ev):

   -17.0335 -17.0309 -16.9141 -16.8486 -16.8432 -16.7917 -16.7810 -16.7337
   -16.6439 -16.6346  -1.8798   0.8739   4.9501   5.2980

          k =-0.0707-0.4950 0.6364 (   640 PWs)   bands (ev):

   -17.0331 -17.0240 -16.8888 -16.8463 -16.8287 -16.8017 -16.7894 -16.7409
   -16.6412 -16.6186  -1.2061   0.1244   4.3129   5.2033

          k =-0.0000-0.4243 0.5657 (   639 PWs)   bands (ev):

   -17.0246 -17.0239 -16.8870 -16.8364 -16.8250 -16.8105 -16.7924 -16.7233
   -16.6374 -16.6235  -1.2437   0.1807   3.9274   5.4723

          k =-0.7071 0.1414 0.0000 (   640 PWs)   bands (ev):

   -17.0283 -17.0282 -16.8680 -16.8680 -16.8141 -16.8140 -16.7533 -16.7533
   -16.6456 -16.6456  -0.5802  -0.5799   4.9163   4.9164

          k =-0.1414-0.4243 0.7071 (   639 PWs)   bands (ev):

   -17.0308 -17.0212 -16.8754 -16.8380 -16.8303 -16.8046 -16.7959 -16.7578
   -16.6238 -16.6190  -1.6051   0.5911   4.2424   5.2332

          k =-0.0707-0.3536 0.6364 (   640 PWs)   bands (ev):

   -17.0295 -17.0204 -16.8699 -16.8479 -16.8235 -16.8154 -16.7837 -16.7532
   -16.6333 -16.6305  -1.1450   0.1026   4.1028   4.9912

          k =-0.7071 0.2828 0.0000 (   632 PWs)   bands (ev):

   -17.0123 -17.0123 -16.8487 -16.8487 -16.8031 -16.8031 -16.7580 -16.7580
   -16.6114 -16.6114  -0.5228  -0.5225   4.4715   4.4716

     highest occupied level (ev):     8.3963

!    total energy              =    -425.92229199 Ry
     estimated scf accuracy    <       0.00000004 Ry

     The total energy is the sum of the following terms:
     one-electron contribution =    -276.11222510 Ry
     hartree contribution      =     163.28653379 Ry
     xc contribution           =    -114.34534261 Ry
     ewald contribution        =    -198.75125807 Ry

     convergence has been achieved in   6 iterations

     Forces acting on atoms (cartesian axes, Ry/au):

     atom    1 type  1   force =    -0.00000000   -0.00000000   -0.00000000
     atom    2 type  1   force =    -0.00000000   -0.00000000   -0.00000000

     Total force =     0.000000     Total SCF correction =     0.000001


     Computing stress (Cartesian axis) and pressure

          total   stress  (Ry/bohr**3)                   (kbar)     P=     -757.94
  -0.00515239  -0.00000000   0.00000000         -757.94       -0.00        0.00
  -0.00000000  -0.00515239  -0.00000000           -0.00     -757.94       -0.00
   0.00000000  -0.00000000  -0.00515239            0.00       -0.00     -757.94

     Message from routine punch:
     Nothing written, as per user request (disk_io='none')

     init_run     :      0.91s CPU      1.03s WALL (       1 calls)
     electrons    :      6.18s CPU      6.31s WALL (       1 calls)
     forces       :      0.10s CPU      0.13s WALL (       1 calls)
     stress       :      0.54s CPU      0.64s WALL (       1 calls)

     Called by init_run:
     wfcinit      :      0.52s CPU      0.62s WALL (       1 calls)
     potinit      :      0.01s CPU      0.01s WALL (       1 calls)
     hinit0       :      0.36s CPU      0.36s WALL (       1 calls)

     Called by electrons:
     c_bands      :      5.04s CPU      5.10s WALL (       7 calls)
     sum_band     :      1.02s CPU      1.07s WALL (       7 calls)
     v_of_rho     :      0.01s CPU      0.01s WALL (       7 calls)
     newd         :      0.12s CPU      0.14s WALL (       7 calls)
     mix_rho      :      0.00s CPU      0.00s WALL (       7 calls)

     Called by c_bands:
     init_us_2    :      0.22s CPU      0.23s WALL (     799 calls)
     cegterg      :      4.56s CPU      4.61s WALL (     329 calls)

     Called by *egterg:
     cdiaghg      :      0.30s CPU      0.30s WALL (    1073 calls)
     h_psi        :      4.11s CPU      4.21s WALL (    1167 calls)
     s_psi        :      0.11s CPU      0.12s WALL (    1167 calls)
     g_psi        :      0.02s CPU      0.02s WALL (     791 calls)

     Called by h_psi:
     h_psi:calbec :      0.15s CPU      0.16s WALL (    1167 calls)
     vloc_psi     :      3.79s CPU      3.89s WALL (    1167 calls)
     add_vuspsi   :      0.12s CPU      0.12s WALL (    1167 calls)

     General routines
     calbec       :      0.31s CPU      0.37s WALL (    2295 calls)
     fft          :      0.18s CPU      0.18s WALL (      37 calls)
     ffts         :      0.00s CPU      0.00s WALL (       7 calls)
     fftw         :      3.95s CPU      4.07s WALL (   29532 calls)

     Parallel routines

     PWSCF        :      7.90s CPU      8.29s WALL


   This run was terminated on:   2: 6:38   8Oct2025            

=------------------------------------------------------------------------------=
   JOB DONE.
=------------------------------------------------------------------------------=
