
     Program PWSCF v.7.4.1 starts on 21Oct2025 at  1:39:11 

     This program is part of the open-source Quantum ESPRESSO suite
     for quantum simulation of materials; please cite
         "P. Giannozzi et al., J. Phys.:Condens. Matter 21 395502 (2009);
         "P. Giannozzi et al., J. Phys.:Condens. Matter 29 465901 (2017);
         "P. Giannozzi et al., J. Chem. Phys. 152 154105 (2020);
          URL http://www.quantum-espresso.org", 
     in publications or presentations arising from this work. More details at
     http://www.quantum-espresso.org/quote

     Parallel version (MPI), running on     2 processors

     MPI processes distributed on     1 nodes
     174 MiB available memory on the printing compute node when the environment starts

     Waiting for input...
     Reading input from standard input
Warning: card &CELL ignored
Warning: card / ignored

     Current dimensions of program PWSCF are:
     Max number of different atomic species (ntypx) = 10
     Max number of k-points (npk) =  40000
     Max angular momentum in pseudopotentials (lmaxx) =  4
     file O.pz-rrkjus.UPF: wavefunction(s)  2S renormalized
     Message from routine setup:
     using ibrav=0 with symmetry is DISCOURAGED, use correct ibrav instead

     R & G space division:  proc/nbgrp/npool/nimage =       2
     Subspace diagonalization in iterative solution of the eigenvalue problem:
     a serial algorithm will be used


     Parallelization info
     --------------------
     sticks:   dense  smooth     PW     G-vecs:    dense   smooth      PW
     Min         498     248     72                11922     4192     682
     Max         499     249     73                11925     4193     683
     Sum         997     497    145                23847     8385    1365

     Using Slab Decomposition



     bravais-lattice index     =            0
     lattice parameter (alat)  =       7.2440  a.u.
     unit-cell volume          =     380.1249 (a.u.)^3
     number of atoms/cell      =            5
     number of atomic types    =            3
     number of electrons       =        44.00
     number of Kohn-Sham states=           22
     kinetic-energy cutoff     =      30.0000  Ry
     charge density cutoff     =     240.0000  Ry
     scf convergence threshold =      1.0E-07
     mixing beta               =       0.7000
     number of iterations used =            8  plain     mixing
     Exchange-correlation= SLA  PZ   NOGX NOGC
                           (   1   1   0   0   0   0   0)

     celldm(1)=   7.243950  celldm(2)=   0.000000  celldm(3)=   0.000000
     celldm(4)=   0.000000  celldm(5)=   0.000000  celldm(6)=   0.000000

     crystal axes: (cart. coord. in units of alat)
               a(1) = (   1.000000   0.000000   0.000000 )  
               a(2) = (   0.000000   1.000000   0.000000 )  
               a(3) = (   0.000000   0.000000   1.000000 )  

     reciprocal axes: (cart. coord. in units 2 pi/alat)
               b(1) = (  1.000000  0.000000  0.000000 )  
               b(2) = (  0.000000  1.000000  0.000000 )  
               b(3) = (  0.000000  0.000000  1.000000 )  


     PseudoPot. # 1 for O  read from file:
     /home/bond/Software/QE/qe-7.4.1/pseudo/O.pz-rrkjus.UPF
     MD5 check sum: 24fb942a68ef5d262e498166c462ef4a
     Pseudo is Ultrasoft, Zval =  6.0
     Generated by new atomic code, or converted to UPF format
     Using radial grid of 1269 points,  4 beta functions with: 
                l(1) =   0
                l(2) =   0
                l(3) =   1
                l(4) =   1
     Q(r) pseudized with 0 coefficients 


     PseudoPot. # 2 for Pb read from file:
     /home/bond/Software/QE/qe-7.4.1/pseudo/Pb.pz-d-van.UPF
     MD5 check sum: 4e1e5920686a026ae26139ac417581ff
     Pseudo is Ultrasoft, Zval = 14.0
     Generated by new atomic code, or converted to UPF format
     Using radial grid of  899 points,  6 beta functions with: 
                l(1) =   0
                l(2) =   0
                l(3) =   1
                l(4) =   1
                l(5) =   2
                l(6) =   2
     Q(r) pseudized with  8 coefficients,  rinner =    1.000   1.000   1.000
                                                       1.000   1.000

     PseudoPot. # 3 for Ti read from file:
     /home/bond/Software/QE/qe-7.4.1/pseudo/Ti.pz-sp-van_ak.UPF
     MD5 check sum: 545d0e6e05332b8871a8093f427cb0ca
     Pseudo is Ultrasoft, Zval = 12.0
     Generated by new atomic code, or converted to UPF format
     Using radial grid of  851 points,  6 beta functions with: 
                l(1) =   0
                l(2) =   0
                l(3) =   1
                l(4) =   1
                l(5) =   2
                l(6) =   2
     Q(r) pseudized with  8 coefficients,  rinner =    1.000   1.000   1.000
                                                       1.000   1.000

     atomic species   valence    mass     pseudopotential
     O                 6.00    15.99900     O ( 1.00)
     Pb               14.00   207.20000     Pb( 1.00)
     Ti               12.00    47.86700     Ti( 1.00)

     48 Sym. Ops., with inversion, found



   Cartesian axes

     site n.     atom                  positions (alat units)
         1        Pb     tau(   1) = (   0.0000000   0.0000000   0.0000000  )
         2        Ti     tau(   2) = (   0.5000009   0.5000009   0.5000009  )
         3        O      tau(   3) = (   0.0000000   0.5000009   0.5000009  )
         4        O      tau(   4) = (   0.5000009   0.0000000   0.5000009  )
         5        O      tau(   5) = (   0.5000009   0.5000009   0.0000000  )

     number of k points=     4
                       cart. coord. in units 2pi/alat
        k(    1) = (   0.1250000   0.1250000   0.1250000), wk =   0.2500000
        k(    2) = (   0.1250000   0.1250000   0.3750000), wk =   0.7500000
        k(    3) = (   0.1250000   0.3750000   0.3750000), wk =   0.7500000
        k(    4) = (   0.3750000   0.3750000   0.3750000), wk =   0.2500000

     Dense  grid:    23847 G-vectors     FFT dimensions: (  36,  36,  36)

     Smooth grid:     8385 G-vectors     FFT dimensions: (  25,  25,  25)

     Estimated max dynamical RAM per process >      48.90 MB

     Estimated total dynamical RAM >      97.81 MB

     Initial potential from superposition of free atoms

     starting charge      42.9982, renormalised to      44.0000
     Starting wfcs are   31 randomized atomic wfcs

     total cpu time spent up to now is        1.9 secs

     Self-consistent Calculation

     iteration #  1     ecut=    30.00 Ry     beta= 0.70
     Davidson diagonalization with overlap
     ethr =  1.00E-02,  avg # of iterations =  2.0

     total cpu time spent up to now is        2.4 secs

     total energy              =    -332.62180666 Ry
     estimated scf accuracy    <       1.09279600 Ry

     iteration #  2     ecut=    30.00 Ry     beta= 0.70
     Davidson diagonalization with overlap
     ethr =  2.48E-03,  avg # of iterations =  6.8

     total cpu time spent up to now is        2.8 secs

     total energy              =    -332.45470092 Ry
     estimated scf accuracy    <       3.66551447 Ry

     iteration #  3     ecut=    30.00 Ry     beta= 0.70
     Davidson diagonalization with overlap
     ethr =  2.48E-03,  avg # of iterations =  5.8

     total cpu time spent up to now is        3.1 secs

     total energy              =    -333.15842276 Ry
     estimated scf accuracy    <       0.20921237 Ry

     iteration #  4     ecut=    30.00 Ry     beta= 0.70
     Davidson diagonalization with overlap
     ethr =  4.75E-04,  avg # of iterations =  2.5

     total cpu time spent up to now is        3.4 secs

     total energy              =    -333.15322423 Ry
     estimated scf accuracy    <       0.05379961 Ry

     iteration #  5     ecut=    30.00 Ry     beta= 0.70
     Davidson diagonalization with overlap
     ethr =  1.22E-04,  avg # of iterations =  5.5

     total cpu time spent up to now is        3.8 secs

     total energy              =    -333.17908359 Ry
     estimated scf accuracy    <       0.03124815 Ry

     iteration #  6     ecut=    30.00 Ry     beta= 0.70
     Davidson diagonalization with overlap
     ethr =  7.10E-05,  avg # of iterations =  2.5

     total cpu time spent up to now is        4.1 secs

     total energy              =    -333.17793939 Ry
     estimated scf accuracy    <       0.01018905 Ry

     iteration #  7     ecut=    30.00 Ry     beta= 0.70
     Davidson diagonalization with overlap
     ethr =  2.32E-05,  avg # of iterations =  4.2

     total cpu time spent up to now is        4.4 secs

     total energy              =    -333.18109959 Ry
     estimated scf accuracy    <       0.00020435 Ry

     iteration #  8     ecut=    30.00 Ry     beta= 0.70
     Davidson diagonalization with overlap
     ethr =  4.64E-07,  avg # of iterations =  5.5

     total cpu time spent up to now is        4.7 secs

     total energy              =    -333.18105159 Ry
     estimated scf accuracy    <       0.00062441 Ry

     iteration #  9     ecut=    30.00 Ry     beta= 0.70
     Davidson diagonalization with overlap
     ethr =  4.64E-07,  avg # of iterations =  4.5

     total cpu time spent up to now is        5.0 secs

     total energy              =    -333.18104814 Ry
     estimated scf accuracy    <       0.00012707 Ry

     iteration # 10     ecut=    30.00 Ry     beta= 0.70
     Davidson diagonalization with overlap
     ethr =  2.89E-07,  avg # of iterations =  4.2

     total cpu time spent up to now is        5.3 secs

     total energy              =    -333.18107765 Ry
     estimated scf accuracy    <       0.00000156 Ry

     iteration # 11     ecut=    30.00 Ry     beta= 0.70
     Davidson diagonalization with overlap
     ethr =  3.55E-09,  avg # of iterations =  5.8

     total cpu time spent up to now is        5.6 secs

     total energy              =    -333.18107837 Ry
     estimated scf accuracy    <       0.00000299 Ry

     iteration # 12     ecut=    30.00 Ry     beta= 0.70
     Davidson diagonalization with overlap
     ethr =  3.55E-09,  avg # of iterations =  4.5

     total cpu time spent up to now is        5.9 secs

     End of self-consistent calculation

          k = 0.1250 0.1250 0.1250 (  1060 PWs)   bands (ev):

   -43.9879 -20.6280 -20.6266 -20.6266  -5.9488  -4.8115  -4.8115  -3.3487
    -3.3487  -3.3332  -3.1619  -3.1619   5.1984   7.7463   7.7463   8.6456
     9.6229   9.6229  10.3796  10.4944  10.4944  10.6615

          k = 0.1250 0.1250 0.3750 (  1055 PWs)   bands (ev):

   -43.9864 -20.6945 -20.6243 -20.6239  -5.5114  -4.6854  -4.6072  -3.4187
    -3.3442  -3.3318  -3.2665  -3.1225   4.4056   7.2867   7.7420   8.3258
     8.9606   9.2111   9.9223  10.4396  10.6352  11.5019

          k = 0.1250 0.3750 0.3750 (  1058 PWs)   bands (ev):

   -43.9849 -20.6914 -20.6901 -20.6217  -5.2794  -4.5219  -4.4449  -3.3890
    -3.3410  -3.2860  -3.1869  -3.0329   3.9841   7.2526   7.2823   7.5941
     7.9132   9.2112   9.9667   9.9725  10.6533  11.2583

          k = 0.3750 0.3750 0.3750 (  1040 PWs)   bands (ev):

   -43.9833 -20.6872 -20.6871 -20.6871  -4.8297  -4.6448  -4.6448  -3.2877
    -3.2877  -2.9880  -2.9174  -2.9174   4.6138   6.2914   6.2914   7.2102
     7.4617   7.4617   8.5428  11.2145  11.2145  11.2853

     highest occupied level (ev):    11.5019

!    total energy              =    -333.18107883 Ry
     estimated scf accuracy    <       0.00000002 Ry

     The total energy is the sum of the following terms:
     one-electron contribution =     -72.10658259 Ry
     hartree contribution      =      64.98743547 Ry
     xc contribution           =     -49.77372217 Ry
     ewald contribution        =    -276.28820953 Ry

     convergence has been achieved in  12 iterations

     Forces acting on atoms (cartesian axes, Ry/au):

     atom    1 type  2   force =     0.00000000    0.00000000    0.00000000
     atom    2 type  3   force =     0.00000000    0.00000000    0.00000000
     atom    3 type  1   force =     0.00000000    0.00000000    0.00000000
     atom    4 type  1   force =     0.00000000    0.00000000    0.00000000
     atom    5 type  1   force =     0.00000000    0.00000000    0.00000000

     Total force =     0.000000     Total SCF correction =     0.000000


     Computing stress (Cartesian axis) and pressure

          total   stress  (Ry/bohr**3)                   (kbar)     P=       56.63
   0.00038498   0.00000000   0.00000000           56.63        0.00        0.00
   0.00000000   0.00038498   0.00000000            0.00       56.63        0.00
   0.00000000   0.00000000   0.00038498            0.00        0.00       56.63

     Message from routine punch:
     Nothing written, as per user request (disk_io='none')

     init_run     :      1.16s CPU      1.40s WALL (       1 calls)
     electrons    :      3.83s CPU      3.98s WALL (       1 calls)
     forces       :      0.12s CPU      0.12s WALL (       1 calls)
     stress       :      1.08s CPU      1.08s WALL (       1 calls)

     Called by init_run:
     wfcinit      :      0.16s CPU      0.28s WALL (       1 calls)
     potinit      :      0.12s CPU      0.13s WALL (       1 calls)
     hinit0       :      0.67s CPU      0.71s WALL (       1 calls)

     Called by electrons:
     c_bands      :      1.42s CPU      1.53s WALL (      12 calls)
     sum_band     :      1.35s CPU      1.38s WALL (      12 calls)
     v_of_rho     :      0.02s CPU      0.03s WALL (      13 calls)
     newd         :      1.15s CPU      1.21s WALL (      13 calls)
     mix_rho      :      0.02s CPU      0.02s WALL (      12 calls)

     Called by c_bands:
     init_us_2    :      0.04s CPU      0.05s WALL (     108 calls)
     cegterg      :      1.33s CPU      1.43s WALL (      48 calls)

     Called by *egterg:
     cdiaghg      :      0.18s CPU      0.22s WALL (     263 calls)
     h_psi        :      1.04s CPU      1.20s WALL (     267 calls)
     s_psi        :      0.04s CPU      0.04s WALL (     267 calls)
     g_psi        :      0.01s CPU      0.01s WALL (     215 calls)

     Called by h_psi:
     h_psi:calbec :      0.07s CPU      0.09s WALL (     267 calls)
     vloc_psi     :      0.91s CPU      1.05s WALL (     267 calls)
     add_vuspsi   :      0.04s CPU      0.05s WALL (     267 calls)

     General routines
     calbec       :      0.11s CPU      0.13s WALL (     383 calls)
     fft          :      0.26s CPU      0.29s WALL (      81 calls)
     ffts         :      0.05s CPU      0.06s WALL (      25 calls)
     fftw         :      0.86s CPU      1.00s WALL (    7388 calls)
     interpolate  :      0.06s CPU      0.06s WALL (      13 calls)

     Parallel routines

     PWSCF        :      6.65s CPU      7.14s WALL


   This run was terminated on:   1:39:18  21Oct2025            

=------------------------------------------------------------------------------=
   JOB DONE.
=------------------------------------------------------------------------------=
