LAMMPS (22 Jul 2025 - Update 1)
Reading data file ...
  orthogonal box = (0 0 0) to (4.05 4.05 4.05)
  1 by 1 by 1 MPI processor grid
  reading atoms ...
  4 atoms
  read_data CPU = 0.001 seconds
Reading eam/alloy potential file /home/bond/Software/LAMMPS/lammps-22Jul2025/potentials/Al_zhou.eam.alloy with DATE: 2007-10-12
WARNING: No fixes with time integration, atoms won't move
For more information see https://docs.lammps.org/err0028 (../verlet.cpp:60)
Neighbor list info ...
  update: every = 1 steps, delay = 0 steps, check = yes
  max neighbors/atom: 2000, page size: 100000
  master list distance cutoff = 12.1025
  ghost atom cutoff = 12.1025
  binsize = 6.05125, bins = 1 1 1
  1 neighbor lists, perpetual/occasional/extra = 1 0 0
  (1) pair eam/alloy, perpetual
      attributes: half, newton on
      pair build: half/bin/atomonly/newton
      stencil: half/bin/3d
      bin: standard
Setting up Verlet run ...
  Unit style    : metal
  Current step  : 0
  Time step     : 0.001
Per MPI rank memory allocation (min/avg/max) = 3.244 | 3.244 | 3.244 Mbytes
   Step         PotEng           Lx             Ly             Lz           Press           Pxx            Pyy            Pzz      
         0  -14.308637      4.05           4.05           4.05           23601.197      23601.197      23601.197      23601.197    
Loop time of 2.003e-06 on 1 procs for 0 steps with 4 atoms

199.7% CPU use with 1 MPI tasks x no OpenMP threads

MPI task timing breakdown:
Section |  min time  |  avg time  |  max time  |%varavg| %total
---------------------------------------------------------------
Pair    | 0          | 0          | 0          |   0.0 |  0.00
Neigh   | 0          | 0          | 0          |   0.0 |  0.00
Comm    | 0          | 0          | 0          |   0.0 |  0.00
Output  | 0          | 0          | 0          |   0.0 |  0.00
Modify  | 0          | 0          | 0          |   0.0 |  0.00
Other   |            | 2.003e-06  |            |       |100.00

Nlocal:              4 ave           4 max           4 min
Histogram: 1 0 0 0 0 0 0 0 0 0
Nghost:           1094 ave        1094 max        1094 min
Histogram: 1 0 0 0 0 0 0 0 0 0
Neighs:            856 ave         856 max         856 min
Histogram: 1 0 0 0 0 0 0 0 0 0

Total # of neighbors = 856
Ave neighs/atom = 214
Neighbor list builds = 0
Dangerous builds = 0
Setting up cg style minimization ...
  Unit style    : metal
  Current step  : 0
WARNING: Energy due to 1 extra global DOFs will be included in minimizer energies
 (../min.cpp:222)
Per MPI rank memory allocation (min/avg/max) = 4.369 | 4.369 | 4.369 Mbytes
   Step         PotEng           Lx             Ly             Lz           Press           Pxx            Pyy            Pzz      
         0  -14.308637      4.05           4.05           4.05           23601.197      23601.197      23601.197      23601.197    
         9  -14.319995      4.0816549      4.0816549      4.0816549     -0.0028960465  -0.0028960465  -0.0028960465  -0.0028960465 
Loop time of 0.00091181 on 1 procs for 9 steps with 4 atoms

76.6% CPU use with 1 MPI tasks x no OpenMP threads

Minimization stats:
  Stopping criterion = energy tolerance
  Energy initial, next-to-last, final = 
     -14.3086370792432  -14.3199946396151   -14.319994639716
  Force two-norm initial, final = 2.9356887 3.658845e-07
  Force max component initial, final = 2.9356887 3.658845e-07
  Final line search alpha, max atom move = 1 3.658845e-07
  Iterations, force evaluations = 9 11

MPI task timing breakdown:
Section |  min time  |  avg time  |  max time  |%varavg| %total
---------------------------------------------------------------
Pair    | 0.0005866  | 0.0005866  | 0.0005866  |   0.0 | 64.33
Neigh   | 0          | 0          | 0          |   0.0 |  0.00
Comm    | 7.7861e-05 | 7.7861e-05 | 7.7861e-05 |   0.0 |  8.54
Output  | 0          | 0          | 0          |   0.0 |  0.00
Modify  | 0          | 0          | 0          |   0.0 |  0.00
Other   |            | 0.0002473  |            |       | 27.13

Nlocal:              4 ave           4 max           4 min
Histogram: 1 0 0 0 0 0 0 0 0 0
Nghost:           1094 ave        1094 max        1094 min
Histogram: 1 0 0 0 0 0 0 0 0 0
Neighs:            856 ave         856 max         856 min
Histogram: 1 0 0 0 0 0 0 0 0 0

Total # of neighbors = 856
Ave neighs/atom = 214
Neighbor list builds = 0
Dangerous builds = 0
Total energy (eV) = -14.319994639716
Number of atoms = 4
Lattice constant (Angstoms) = 4.08165490486347
Total wall time: 0:00:00
