
     Program PWSCF v.7.4.1 starts on 20Oct2025 at 18: 2:42 

     This program is part of the open-source Quantum ESPRESSO suite
     for quantum simulation of materials; please cite
         "P. Giannozzi et al., J. Phys.:Condens. Matter 21 395502 (2009);
         "P. Giannozzi et al., J. Phys.:Condens. Matter 29 465901 (2017);
         "P. Giannozzi et al., J. Chem. Phys. 152 154105 (2020);
          URL http://www.quantum-espresso.org", 
     in publications or presentations arising from this work. More details at
     http://www.quantum-espresso.org/quote

     Parallel version (MPI), running on     2 processors

     MPI processes distributed on     1 nodes
     290 MiB available memory on the printing compute node when the environment starts

     Waiting for input...
     Reading input from standard input

     Current dimensions of program PWSCF are:
     Max number of different atomic species (ntypx) = 10
     Max number of k-points (npk) =  40000
     Max angular momentum in pseudopotentials (lmaxx) =  4
     file Fe.pbe-nd-rrkjus.UPF: wavefunction(s)  4S renormalized
     Message from routine find_sym:
     Not a group! Trying with lower acceptance parameter...
     Message from routine find_sym:
     Symmetry operations form a group
     Message from routine setup:
     using ibrav=0 with symmetry is DISCOURAGED, use correct ibrav instead

     R & G space division:  proc/nbgrp/npool/nimage =       2
     Subspace diagonalization in iterative solution of the eigenvalue problem:
     a serial algorithm will be used


     Parallelization info
     --------------------
     sticks:   dense  smooth     PW     G-vecs:    dense   smooth      PW
     Min         273     105     36                 7823     1983     386
     Max         274     106     37                 7826     1986     387
     Sum         547     211     73                15649     3969     773

     Using Slab Decomposition



     bravais-lattice index     =            0
     lattice parameter (alat)  =       5.1023  a.u.
     unit-cell volume          =     178.9386 (a.u.)^3
     number of atoms/cell      =            2
     number of atomic types    =            1
     number of electrons       =        16.00
     number of Kohn-Sham states=           12
     kinetic-energy cutoff     =      30.0000  Ry
     charge density cutoff     =     300.0000  Ry
     scf convergence threshold =      1.0E-07
     mixing beta               =       0.5000
     number of iterations used =            8  plain     mixing
     energy convergence thresh.=      1.0E-04
     force convergence thresh. =      1.0E-03
     press convergence thresh. =      5.0E-01
     Exchange-correlation=  SLA  PW   PBE  PBE
                           (   1   4   3   4   0   0   0)
     nstep                     =           50


     celldm(1)=   5.102261  celldm(2)=   0.000000  celldm(3)=   0.000000
     celldm(4)=   0.000000  celldm(5)=   0.000000  celldm(6)=   0.000000

     crystal axes: (cart. coord. in units of alat)
               a(1) = (   1.000000   0.000000   0.000000 )  
               a(2) = (  -0.500000   0.866025   0.000000 )  
               a(3) = (   0.000000   0.000000   1.555556 )  

     reciprocal axes: (cart. coord. in units 2 pi/alat)
               b(1) = (  1.000000  0.577350 -0.000000 )  
               b(2) = (  0.000000  1.154701  0.000000 )  
               b(3) = (  0.000000 -0.000000  0.642857 )  


     PseudoPot. # 1 for Fe read from file:
     /home/bond/Software/QE/qe-7.4.1/pseudo/Fe.pbe-nd-rrkjus.UPF
     MD5 check sum: 398036227a04b607635f6f5e8dfd8242
     Pseudo is Ultrasoft + core correction, Zval =  8.0
     Generated by new atomic code, or converted to UPF format
     Using radial grid of  957 points,  6 beta functions with: 
                l(1) =   0
                l(2) =   0
                l(3) =   1
                l(4) =   1
                l(5) =   2
                l(6) =   2
     Q(r) pseudized with 0 coefficients 


     atomic species   valence    mass     pseudopotential
     Fe                8.00    55.84500     Fe( 1.00)

     Starting magnetic structure 
     atomic species   magnetization
     Fe              0.700

      4 Sym. Ops. (no inversion) found



   Cartesian axes

     site n.     atom                  positions (alat units)
         1        Fe     tau(   1) = (   0.0000000   0.0000000   0.0000000  )
         2        Fe     tau(   2) = (   0.0000000   0.5773519   0.7777778  )

     number of k points=   172  Methfessel-Paxton smearing, width (Ry)=  0.0200

     Number of k-points >= 100: set verbosity='high' to print them.

     Dense  grid:    15649 G-vectors     FFT dimensions: (  30,  30,  45)

     Smooth grid:     3969 G-vectors     FFT dimensions: (  18,  18,  27)

     Estimated max dynamical RAM per process >      50.57 MB

     Estimated total dynamical RAM >     101.15 MB

     Check: negative core charge=   -0.000008
     Generating pointlists ...
     new r_m :   0.3996 (alat units)  2.0387 (a.u.) for type    1

     Initial potential from superposition of free atoms

     starting charge      15.9987, renormalised to      16.0000
     Starting wfcs are   12 randomized atomic wfcs

     total cpu time spent up to now is        1.4 secs

     Self-consistent Calculation

     iteration #  1     ecut=    30.00 Ry     beta= 0.50
     Davidson diagonalization with overlap
     ethr =  1.00E-02,  avg # of iterations =  3.8

     total cpu time spent up to now is        4.0 secs

     total energy              =    -111.33923105 Ry
     estimated scf accuracy    <       0.57323121 Ry

     total magnetization       =     6.88 Bohr mag/cell
     absolute magnetization    =     6.88 Bohr mag/cell

     iteration #  2     ecut=    30.00 Ry     beta= 0.50
     Davidson diagonalization with overlap
     ethr =  3.58E-03,  avg # of iterations =  2.1

     total cpu time spent up to now is        6.0 secs

     total energy              =    -111.52775555 Ry
     estimated scf accuracy    <       0.06206726 Ry

     total magnetization       =     6.17 Bohr mag/cell
     absolute magnetization    =     6.18 Bohr mag/cell

     iteration #  3     ecut=    30.00 Ry     beta= 0.50
     Davidson diagonalization with overlap
     ethr =  3.88E-04,  avg # of iterations =  1.6

     total cpu time spent up to now is        7.8 secs

     total energy              =    -111.55888397 Ry
     estimated scf accuracy    <       0.01158022 Ry

     total magnetization       =     6.06 Bohr mag/cell
     absolute magnetization    =     6.11 Bohr mag/cell

     iteration #  4     ecut=    30.00 Ry     beta= 0.50
     Davidson diagonalization with overlap
     ethr =  7.24E-05,  avg # of iterations =  2.7

     total cpu time spent up to now is       10.1 secs

     total energy              =    -111.55575265 Ry
     estimated scf accuracy    <       0.27934880 Ry

     total magnetization       =     5.57 Bohr mag/cell
     absolute magnetization    =     5.79 Bohr mag/cell

     iteration #  5     ecut=    30.00 Ry     beta= 0.50
     Davidson diagonalization with overlap
     ethr =  7.24E-05,  avg # of iterations =  1.8

     total cpu time spent up to now is       11.9 secs

     total energy              =    -111.56898982 Ry
     estimated scf accuracy    <       0.00154371 Ry

     total magnetization       =     5.51 Bohr mag/cell
     absolute magnetization    =     5.76 Bohr mag/cell

     iteration #  6     ecut=    30.00 Ry     beta= 0.50
     Davidson diagonalization with overlap
     ethr =  9.65E-06,  avg # of iterations =  2.3

     total cpu time spent up to now is       14.1 secs

     total energy              =    -111.56947354 Ry
     estimated scf accuracy    <       0.00043511 Ry

     total magnetization       =     5.47 Bohr mag/cell
     absolute magnetization    =     5.75 Bohr mag/cell

     iteration #  7     ecut=    30.00 Ry     beta= 0.50
     Davidson diagonalization with overlap
     ethr =  2.72E-06,  avg # of iterations =  2.0

     total cpu time spent up to now is       15.9 secs

     total energy              =    -111.56956716 Ry
     estimated scf accuracy    <       0.00028060 Ry

     total magnetization       =     5.46 Bohr mag/cell
     absolute magnetization    =     5.75 Bohr mag/cell

     iteration #  8     ecut=    30.00 Ry     beta= 0.50
     Davidson diagonalization with overlap
     ethr =  1.75E-06,  avg # of iterations =  1.8

     total cpu time spent up to now is       17.8 secs

     total energy              =    -111.56962041 Ry
     estimated scf accuracy    <       0.00001462 Ry

     total magnetization       =     5.45 Bohr mag/cell
     absolute magnetization    =     5.75 Bohr mag/cell

     iteration #  9     ecut=    30.00 Ry     beta= 0.50
     Davidson diagonalization with overlap
     ethr =  9.14E-08,  avg # of iterations =  5.6

     total cpu time spent up to now is       21.3 secs

     total energy              =    -111.56963616 Ry
     estimated scf accuracy    <       0.00000218 Ry

     total magnetization       =     5.45 Bohr mag/cell
     absolute magnetization    =     5.75 Bohr mag/cell

     iteration # 10     ecut=    30.00 Ry     beta= 0.50
     Davidson diagonalization with overlap
     ethr =  1.36E-08,  avg # of iterations =  5.0

     total cpu time spent up to now is       24.6 secs

     total energy              =    -111.56963798 Ry
     estimated scf accuracy    <       0.00000109 Ry

     total magnetization       =     5.45 Bohr mag/cell
     absolute magnetization    =     5.75 Bohr mag/cell

     iteration # 11     ecut=    30.00 Ry     beta= 0.50
     Davidson diagonalization with overlap
     ethr =  6.82E-09,  avg # of iterations =  2.5

     total cpu time spent up to now is       26.5 secs

     total energy              =    -111.56963826 Ry
     estimated scf accuracy    <       0.00000037 Ry

     total magnetization       =     5.45 Bohr mag/cell
     absolute magnetization    =     5.75 Bohr mag/cell

     iteration # 12     ecut=    30.00 Ry     beta= 0.50
     Davidson diagonalization with overlap
     ethr =  2.32E-09,  avg # of iterations =  2.5

     total cpu time spent up to now is       28.5 secs

     total energy              =    -111.56963832 Ry
     estimated scf accuracy    <       0.00000011 Ry

     total magnetization       =     5.45 Bohr mag/cell
     absolute magnetization    =     5.75 Bohr mag/cell

     iteration # 13     ecut=    30.00 Ry     beta= 0.50
     Davidson diagonalization with overlap
     ethr =  7.10E-10,  avg # of iterations =  3.7

     Magnetic moment per site  (integrated on atomic sphere of radius R)
     atom   1 (R=0.400)  charge=  6.6275  magn=  2.7899
     atom   2 (R=0.400)  charge=  6.6270  magn=  2.7896

     total cpu time spent up to now is       31.0 secs

     End of self-consistent calculation

     Number of k-points >= 100: set verbosity='high' to print the bands.

     the Fermi energy is    11.5971 ev

!    total energy              =    -111.56963833 Ry
     estimated scf accuracy    <       0.00000002 Ry
     smearing contrib. (-TS)   =       0.00012143 Ry
     internal energy E=F+TS    =    -111.56975976 Ry

     The total energy is F=E-TS. E is the sum of the following terms:
     one-electron contribution =       9.09410520 Ry
     hartree contribution      =      14.79571754 Ry
     xc contribution           =     -52.83121846 Ry
     ewald contribution        =     -82.62836405 Ry

     total magnetization       =     5.45 Bohr mag/cell
     absolute magnetization    =     5.75 Bohr mag/cell

     convergence has been achieved in  13 iterations

     Forces acting on atoms (cartesian axes, Ry/au):

     atom    1 type  1   force =     0.00000000   -0.00000073    0.00000000
     atom    2 type  1   force =     0.00000000    0.00000073    0.00000000

     Total force =     0.000001     Total SCF correction =     0.000002
     SCF correction compared to forces is large: reduce conv_thr to get better values


     Computing stress (Cartesian axis) and pressure

          total   stress  (Ry/bohr**3)                   (kbar)     P=     -110.00
  -0.00099961   0.00000000   0.00000000         -147.05        0.00        0.00
   0.00000000  -0.00099963   0.00000000            0.00     -147.05        0.00
   0.00000000   0.00000000  -0.00024403            0.00        0.00      -35.90


     BFGS Geometry Optimization
     Energy error            =      9.7E-03 Ry
     Gradient error          =      7.3E-07 Ry/Bohr
     Cell gradient error     =      1.5E+02 kbar

     number of scf cycles    =   1
     number of bfgs steps    =   0

     enthalpy           new  =    -111.5696383346 Ry

     new trust radius        =       0.0668591736 bohr
     new conv_thr            =       0.0000001000 Ry

     new unit-cell volume =    169.06904 a.u.^3 (    25.05345 Ang^3 )
     density =      7.40280 g/cm^3

CELL_PARAMETERS (angstrom)
   2.632526455   0.000000000   0.000000000
  -1.316263228   2.279833546   0.000000000
   0.000000000   0.000000000   4.174376454

ATOMIC_POSITIONS (angstrom)
Fe               0.0000000000       -0.0000003767        0.0000000000
Fe               0.0000000000        1.5198935736        2.0871882269


     Message from routine punch:
     Nothing written, as per user request (disk_io='none')
     NEW-OLD atomic charge density approx. for the potential
     New effective cutoffs (rho, wfc):  315.42   31.55

     Check: negative core charge=   -0.000005
     Generating pointlists ...
     new r_m :   0.3945 (alat units)  2.0127 (a.u.) for type    1

     total cpu time spent up to now is       32.0 secs

     Self-consistent Calculation

     iteration #  1     ecut=    30.00 Ry     beta= 0.50
     Davidson diagonalization with overlap
     ethr =  1.00E-06,  avg # of iterations =  6.3

     total cpu time spent up to now is       36.8 secs

     total energy              =    -111.57614311 Ry
     estimated scf accuracy    <       0.00029118 Ry

     total magnetization       =     5.45 Bohr mag/cell
     absolute magnetization    =     5.72 Bohr mag/cell

     iteration #  2     ecut=    30.00 Ry     beta= 0.50
     Davidson diagonalization with overlap
     ethr =  1.82E-06,  avg # of iterations =  1.2

     total cpu time spent up to now is       38.5 secs

     total energy              =    -111.57611805 Ry
     estimated scf accuracy    <       0.00031060 Ry

     total magnetization       =     5.45 Bohr mag/cell
     absolute magnetization    =     5.71 Bohr mag/cell

     iteration #  3     ecut=    30.00 Ry     beta= 0.50
     Davidson diagonalization with overlap
     ethr =  1.82E-06,  avg # of iterations =  1.5

     total cpu time spent up to now is       40.5 secs

     total energy              =    -111.57612193 Ry
     estimated scf accuracy    <       0.00223221 Ry

     total magnetization       =     5.45 Bohr mag/cell
     absolute magnetization    =     5.71 Bohr mag/cell

     iteration #  4     ecut=    30.00 Ry     beta= 0.50
     Davidson diagonalization with overlap
     ethr =  1.82E-06,  avg # of iterations =  1.2

     total cpu time spent up to now is       42.2 secs

     total energy              =    -111.57625311 Ry
     estimated scf accuracy    <       0.00001511 Ry

     total magnetization       =     5.45 Bohr mag/cell
     absolute magnetization    =     5.70 Bohr mag/cell

     iteration #  5     ecut=    30.00 Ry     beta= 0.50
     Davidson diagonalization with overlap
     ethr =  9.44E-08,  avg # of iterations =  2.5

     total cpu time spent up to now is       44.7 secs

     total energy              =    -111.57626187 Ry
     estimated scf accuracy    <       0.00000262 Ry

     total magnetization       =     5.45 Bohr mag/cell
     absolute magnetization    =     5.70 Bohr mag/cell

     iteration #  6     ecut=    30.00 Ry     beta= 0.50
     Davidson diagonalization with overlap
     ethr =  1.64E-08,  avg # of iterations =  3.5

     total cpu time spent up to now is       47.1 secs

     total energy              =    -111.57626413 Ry
     estimated scf accuracy    <       0.00000082 Ry

     total magnetization       =     5.45 Bohr mag/cell
     absolute magnetization    =     5.69 Bohr mag/cell

     iteration #  7     ecut=    30.00 Ry     beta= 0.50
     Davidson diagonalization with overlap
     ethr =  5.10E-09,  avg # of iterations =  3.0

     total cpu time spent up to now is       49.9 secs

     total energy              =    -111.57626446 Ry
     estimated scf accuracy    <       0.00000022 Ry

     total magnetization       =     5.45 Bohr mag/cell
     absolute magnetization    =     5.69 Bohr mag/cell

     iteration #  8     ecut=    30.00 Ry     beta= 0.50
     Davidson diagonalization with overlap
     ethr =  1.39E-09,  avg # of iterations =  3.6

     Magnetic moment per site  (integrated on atomic sphere of radius R)
     atom   1 (R=0.394)  charge=  6.6239  magn=  2.7707
     atom   2 (R=0.394)  charge=  6.6232  magn=  2.7707

     total cpu time spent up to now is       52.6 secs

     End of self-consistent calculation

     Number of k-points >= 100: set verbosity='high' to print the bands.

     the Fermi energy is    12.3973 ev

!    total energy              =    -111.57626458 Ry
     estimated scf accuracy    <          4.3E-09 Ry
     smearing contrib. (-TS)   =       0.00018519 Ry
     internal energy E=F+TS    =    -111.57644977 Ry

     The total energy is F=E-TS. E is the sum of the following terms:
     one-electron contribution =      11.38615638 Ry
     hartree contribution      =      14.15397355 Ry
     xc contribution           =     -52.89351329 Ry
     ewald contribution        =     -84.22306642 Ry

     total magnetization       =     5.45 Bohr mag/cell
     absolute magnetization    =     5.69 Bohr mag/cell

     convergence has been achieved in   8 iterations

     Forces acting on atoms (cartesian axes, Ry/au):

     atom    1 type  1   force =     0.00000000   -0.00000044    0.00000000
     atom    2 type  1   force =     0.00000000    0.00000044    0.00000000

     Total force =     0.000001     Total SCF correction =     0.000000
     SCF correction compared to forces is large: reduce conv_thr to get better values


     Computing stress (Cartesian axis) and pressure

          total   stress  (Ry/bohr**3)                   (kbar)     P=      -30.00
  -0.00046396   0.00000000   0.00000000          -68.25        0.00        0.00
   0.00000000  -0.00046398   0.00000000            0.00      -68.25        0.00
   0.00000000   0.00000000   0.00031611            0.00        0.00       46.50

     Energy error            =      6.6E-03 Ry
     Gradient error          =      4.4E-07 Ry/Bohr
     Cell gradient error     =      6.8E+01 kbar

     number of scf cycles    =   2
     number of bfgs steps    =   1

     enthalpy           old  =    -111.5696383346 Ry
     enthalpy           new  =    -111.5762645788 Ry

     CASE: enthalpy          _new < enthalpy          _old

     new trust radius        =       0.0648235941 bohr
     new conv_thr            =       0.0000000010 Ry

     new unit-cell volume =    162.55589 a.u.^3 (    24.08830 Ang^3 )
     density =      7.69941 g/cm^3

CELL_PARAMETERS (angstrom)
   2.566908065   0.000000000   0.000000000
  -1.283454033   2.223003998   0.000000000
   0.000000000   0.000000000   4.221390724

ATOMIC_POSITIONS (angstrom)
Fe               0.0000000000       -0.0000008078        0.0000000000
Fe               0.0000000000        1.4820075355        2.1106953618


     Message from routine punch:
     Nothing written, as per user request (disk_io='none')
     NEW-OLD atomic charge density approx. for the potential
     New effective cutoffs (rho, wfc):  331.71   33.17

     Check: negative core charge=   -0.000003
     Generating pointlists ...

     total cpu time spent up to now is       53.6 secs

     Self-consistent Calculation

     iteration #  1     ecut=    30.00 Ry     beta= 0.50
     Davidson diagonalization with overlap
     ethr =  1.00E-06,  avg # of iterations =  7.0

     total cpu time spent up to now is       58.7 secs

     total energy              =    -111.57881214 Ry
     estimated scf accuracy    <       0.00050815 Ry

     total magnetization       =     5.43 Bohr mag/cell
     absolute magnetization    =     5.65 Bohr mag/cell

     iteration #  2     ecut=    30.00 Ry     beta= 0.50
     Davidson diagonalization with overlap
     ethr =  3.18E-06,  avg # of iterations =  1.0

     total cpu time spent up to now is       60.8 secs

     total energy              =    -111.57892481 Ry
     estimated scf accuracy    <       0.00016416 Ry

     total magnetization       =     5.42 Bohr mag/cell
     absolute magnetization    =     5.64 Bohr mag/cell

     iteration #  3     ecut=    30.00 Ry     beta= 0.50
     Davidson diagonalization with overlap
     ethr =  1.03E-06,  avg # of iterations =  2.0

     total cpu time spent up to now is       62.7 secs

     total energy              =    -111.57885522 Ry
     estimated scf accuracy    <       0.00166306 Ry

     total magnetization       =     5.42 Bohr mag/cell
     absolute magnetization    =     5.63 Bohr mag/cell

     iteration #  4     ecut=    30.00 Ry     beta= 0.50
     Davidson diagonalization with overlap
     ethr =  1.03E-06,  avg # of iterations =  1.5

     total cpu time spent up to now is       64.5 secs

     total energy              =    -111.57898838 Ry
     estimated scf accuracy    <       0.00008546 Ry

     total magnetization       =     5.42 Bohr mag/cell
     absolute magnetization    =     5.63 Bohr mag/cell

     iteration #  5     ecut=    30.00 Ry     beta= 0.50
     Davidson diagonalization with overlap
     ethr =  5.34E-07,  avg # of iterations =  1.1

     total cpu time spent up to now is       66.4 secs

     total energy              =    -111.57900223 Ry
     estimated scf accuracy    <       0.00000539 Ry

     total magnetization       =     5.41 Bohr mag/cell
     absolute magnetization    =     5.62 Bohr mag/cell

     iteration #  6     ecut=    30.00 Ry     beta= 0.50
     Davidson diagonalization with overlap
     ethr =  3.37E-08,  avg # of iterations =  3.4

     total cpu time spent up to now is       68.7 secs

     total energy              =    -111.57900736 Ry
     estimated scf accuracy    <       0.00000041 Ry

     total magnetization       =     5.41 Bohr mag/cell
     absolute magnetization    =     5.62 Bohr mag/cell

     iteration #  7     ecut=    30.00 Ry     beta= 0.50
     Davidson diagonalization with overlap
     ethr =  2.58E-09,  avg # of iterations =  5.1

     total cpu time spent up to now is       71.9 secs

     total energy              =    -111.57900800 Ry
     estimated scf accuracy    <       0.00000005 Ry

     total magnetization       =     5.41 Bohr mag/cell
     absolute magnetization    =     5.62 Bohr mag/cell

     iteration #  8     ecut=    30.00 Ry     beta= 0.50
     Davidson diagonalization with overlap
     ethr =  2.94E-10,  avg # of iterations =  5.0

     total cpu time spent up to now is       74.7 secs

     total energy              =    -111.57900807 Ry
     estimated scf accuracy    <          1.9E-09 Ry

     total magnetization       =     5.41 Bohr mag/cell
     absolute magnetization    =     5.62 Bohr mag/cell

     iteration #  9     ecut=    30.00 Ry     beta= 0.50
     Davidson diagonalization with overlap
     ethr =  1.19E-11,  avg # of iterations =  6.0

     Magnetic moment per site  (integrated on atomic sphere of radius R)
     atom   1 (R=0.394)  charge=  6.6728  magn=  2.7432
     atom   2 (R=0.394)  charge=  6.6720  magn=  2.7431

     total cpu time spent up to now is       78.2 secs

     End of self-consistent calculation

     Number of k-points >= 100: set verbosity='high' to print the bands.

     the Fermi energy is    12.9506 ev

!    total energy              =    -111.57900808 Ry
     estimated scf accuracy    <          3.3E-10 Ry
     smearing contrib. (-TS)   =      -0.00013747 Ry
     internal energy E=F+TS    =    -111.57887061 Ry

     The total energy is F=E-TS. E is the sum of the following terms:
     one-electron contribution =      12.98556833 Ry
     hartree contribution      =      13.71745256 Ry
     xc contribution           =     -52.93786191 Ry
     ewald contribution        =     -85.34402959 Ry

     total magnetization       =     5.41 Bohr mag/cell
     absolute magnetization    =     5.62 Bohr mag/cell

     convergence has been achieved in   9 iterations

     Forces acting on atoms (cartesian axes, Ry/au):

     atom    1 type  1   force =     0.00000000   -0.00000073    0.00000000
     atom    2 type  1   force =     0.00000000    0.00000073    0.00000000

     Total force =     0.000001     Total SCF correction =     0.000000


     Computing stress (Cartesian axis) and pressure

          total   stress  (Ry/bohr**3)                   (kbar)     P=       34.87
   0.00003957   0.00000000   0.00000000            5.82        0.00        0.00
   0.00000000   0.00003953   0.00000000            0.00        5.82        0.00
   0.00000000   0.00000000   0.00063196            0.00        0.00       92.96

     Energy error            =      2.7E-03 Ry
     Gradient error          =      7.3E-07 Ry/Bohr
     Cell gradient error     =      9.3E+01 kbar

     number of scf cycles    =   3
     number of bfgs steps    =   2

     enthalpy           old  =    -111.5762645788 Ry
     enthalpy           new  =    -111.5790080816 Ry

     CASE: enthalpy          _new < enthalpy          _old

     new trust radius        =       0.0471519573 bohr
     new conv_thr            =       0.0000000010 Ry

     new unit-cell volume =    162.15391 a.u.^3 (    24.02873 Ang^3 )
     density =      7.71849 g/cm^3

CELL_PARAMETERS (angstrom)
   2.540354432   0.000000000   0.000000000
  -1.270177216   2.200004792   0.000000000
   0.000000000   0.000000000   4.299449893

ATOMIC_POSITIONS (angstrom)
Fe               0.0000000000       -0.0000014007        0.0000000000
Fe               0.0000000000        1.4666752822        2.1497249464


     Message from routine punch:
     Nothing written, as per user request (disk_io='none')
     NEW-OLD atomic charge density approx. for the potential
     New effective cutoffs (rho, wfc):  338.64   33.87

     Check: negative core charge=   -0.000003
     Generating pointlists ...
     new r_m :   0.3881 (alat units)  1.9802 (a.u.) for type    1

     total cpu time spent up to now is       79.2 secs

     Self-consistent Calculation

     iteration #  1     ecut=    30.00 Ry     beta= 0.50
     Davidson diagonalization with overlap
     ethr =  1.00E-06,  avg # of iterations =  6.1

     total cpu time spent up to now is       83.5 secs

     total energy              =    -111.58021297 Ry
     estimated scf accuracy    <       0.00019776 Ry

     total magnetization       =     5.38 Bohr mag/cell
     absolute magnetization    =     5.59 Bohr mag/cell

     iteration #  2     ecut=    30.00 Ry     beta= 0.50
     Davidson diagonalization with overlap
     ethr =  1.24E-06,  avg # of iterations =  1.0

     total cpu time spent up to now is       85.4 secs

     total energy              =    -111.58026770 Ry
     estimated scf accuracy    <       0.00006332 Ry

     total magnetization       =     5.37 Bohr mag/cell
     absolute magnetization    =     5.58 Bohr mag/cell

     iteration #  3     ecut=    30.00 Ry     beta= 0.50
     Davidson diagonalization with overlap
     ethr =  3.96E-07,  avg # of iterations =  1.9

     total cpu time spent up to now is       87.3 secs

     total energy              =    -111.58026468 Ry
     estimated scf accuracy    <       0.00025503 Ry

     total magnetization       =     5.36 Bohr mag/cell
     absolute magnetization    =     5.57 Bohr mag/cell

     iteration #  4     ecut=    30.00 Ry     beta= 0.50
     Davidson diagonalization with overlap
     ethr =  3.96E-07,  avg # of iterations =  1.1

     total cpu time spent up to now is       89.1 secs

     total energy              =    -111.58029077 Ry
     estimated scf accuracy    <       0.00003796 Ry

     total magnetization       =     5.36 Bohr mag/cell
     absolute magnetization    =     5.57 Bohr mag/cell

     iteration #  5     ecut=    30.00 Ry     beta= 0.50
     Davidson diagonalization with overlap
     ethr =  2.37E-07,  avg # of iterations =  1.0

     total cpu time spent up to now is       91.2 secs

     total energy              =    -111.58029612 Ry
     estimated scf accuracy    <       0.00000204 Ry

     total magnetization       =     5.35 Bohr mag/cell
     absolute magnetization    =     5.56 Bohr mag/cell

     iteration #  6     ecut=    30.00 Ry     beta= 0.50
     Davidson diagonalization with overlap
     ethr =  1.27E-08,  avg # of iterations =  3.4

     total cpu time spent up to now is       93.8 secs

     total energy              =    -111.58029786 Ry
     estimated scf accuracy    <       0.00000019 Ry

     total magnetization       =     5.35 Bohr mag/cell
     absolute magnetization    =     5.56 Bohr mag/cell

     iteration #  7     ecut=    30.00 Ry     beta= 0.50
     Davidson diagonalization with overlap
     ethr =  1.22E-09,  avg # of iterations =  5.2

     total cpu time spent up to now is       97.5 secs

     total energy              =    -111.58029820 Ry
     estimated scf accuracy    <       0.00000002 Ry

     total magnetization       =     5.35 Bohr mag/cell
     absolute magnetization    =     5.56 Bohr mag/cell

     iteration #  8     ecut=    30.00 Ry     beta= 0.50
     Davidson diagonalization with overlap
     ethr =  1.17E-10,  avg # of iterations =  5.2

     total cpu time spent up to now is      100.3 secs

     total energy              =    -111.58029823 Ry
     estimated scf accuracy    <          3.4E-09 Ry

     total magnetization       =     5.35 Bohr mag/cell
     absolute magnetization    =     5.56 Bohr mag/cell

     iteration #  9     ecut=    30.00 Ry     beta= 0.50
     Davidson diagonalization with overlap
     ethr =  2.15E-11,  avg # of iterations =  4.4

     Magnetic moment per site  (integrated on atomic sphere of radius R)
     atom   1 (R=0.388)  charge=  6.5865  magn=  2.7107
     atom   2 (R=0.388)  charge=  6.5867  magn=  2.7107

     total cpu time spent up to now is      102.9 secs

     End of self-consistent calculation

     Number of k-points >= 100: set verbosity='high' to print the bands.

     the Fermi energy is    12.9539 ev

!    total energy              =    -111.58029824 Ry
     estimated scf accuracy    <          4.8E-10 Ry
     smearing contrib. (-TS)   =      -0.00032698 Ry
     internal energy E=F+TS    =    -111.57997126 Ry

     The total energy is F=E-TS. E is the sum of the following terms:
     one-electron contribution =      13.05350598 Ry
     hartree contribution      =      13.70301203 Ry
     xc contribution           =     -52.93626812 Ry
     ewald contribution        =     -85.40022115 Ry

     total magnetization       =     5.35 Bohr mag/cell
     absolute magnetization    =     5.56 Bohr mag/cell

     convergence has been achieved in   9 iterations

     Forces acting on atoms (cartesian axes, Ry/au):

     atom    1 type  1   force =     0.00000000   -0.00000084    0.00000000
     atom    2 type  1   force =     0.00000000    0.00000084    0.00000000

     Total force =     0.000001     Total SCF correction =     0.000000


     Computing stress (Cartesian axis) and pressure

          total   stress  (Ry/bohr**3)                   (kbar)     P=       32.81
   0.00012812   0.00000000   0.00000000           18.85        0.00        0.00
   0.00000000   0.00012808   0.00000000            0.00       18.84        0.00
   0.00000000   0.00000000   0.00041295            0.00        0.00       60.75

     Energy error            =      1.3E-03 Ry
     Gradient error          =      8.4E-07 Ry/Bohr
     Cell gradient error     =      6.1E+01 kbar

     number of scf cycles    =   4
     number of bfgs steps    =   3

     enthalpy           old  =    -111.5790080816 Ry
     enthalpy           new  =    -111.5802982355 Ry

     CASE: enthalpy          _new < enthalpy          _old

     new trust radius        =       0.0466919504 bohr
     new conv_thr            =       0.0000000010 Ry

     new unit-cell volume =    164.08659 a.u.^3 (    24.31512 Ang^3 )
     density =      7.62758 g/cm^3

CELL_PARAMETERS (angstrom)
   2.532343422   0.000000000   0.000000000
  -1.266171711   2.193061950   0.000000000
   0.000000000   0.000000000   4.378274388

ATOMIC_POSITIONS (angstrom)
Fe               0.0000000000       -0.0000022956        0.0000000000
Fe               0.0000000000        1.4620476035        2.1891371938


     Message from routine punch:
     Nothing written, as per user request (disk_io='none')
     NEW-OLD atomic charge density approx. for the potential
     New effective cutoffs (rho, wfc):  340.77   34.08

     Check: negative core charge=   -0.000003
     Generating pointlists ...

     total cpu time spent up to now is      103.9 secs

     Self-consistent Calculation

     iteration #  1     ecut=    30.00 Ry     beta= 0.50
     Davidson diagonalization with overlap
     ethr =  1.00E-06,  avg # of iterations =  5.7

     total cpu time spent up to now is      107.9 secs

     total energy              =    -111.58085349 Ry
     estimated scf accuracy    <       0.00008859 Ry

     total magnetization       =     5.34 Bohr mag/cell
     absolute magnetization    =     5.55 Bohr mag/cell

     iteration #  2     ecut=    30.00 Ry     beta= 0.50
     Davidson diagonalization with overlap
     ethr =  5.54E-07,  avg # of iterations =  1.0

     total cpu time spent up to now is      109.5 secs

     total energy              =    -111.58086992 Ry
     estimated scf accuracy    <       0.00002947 Ry

     total magnetization       =     5.34 Bohr mag/cell
     absolute magnetization    =     5.55 Bohr mag/cell

     iteration #  3     ecut=    30.00 Ry     beta= 0.50
     Davidson diagonalization with overlap
     ethr =  1.84E-07,  avg # of iterations =  2.5

     total cpu time spent up to now is      111.8 secs

     total energy              =    -111.58084114 Ry
     estimated scf accuracy    <       0.00077139 Ry

     total magnetization       =     5.34 Bohr mag/cell
     absolute magnetization    =     5.55 Bohr mag/cell

     iteration #  4     ecut=    30.00 Ry     beta= 0.50
     Davidson diagonalization with overlap
     ethr =  1.84E-07,  avg # of iterations =  1.9

     total cpu time spent up to now is      113.6 secs

     total energy              =    -111.58088258 Ry
     estimated scf accuracy    <       0.00000183 Ry

     total magnetization       =     5.34 Bohr mag/cell
     absolute magnetization    =     5.55 Bohr mag/cell

     iteration #  5     ecut=    30.00 Ry     beta= 0.50
     Davidson diagonalization with overlap
     ethr =  1.14E-08,  avg # of iterations =  3.5

     total cpu time spent up to now is      116.0 secs

     total energy              =    -111.58088415 Ry
     estimated scf accuracy    <       0.00000147 Ry

     total magnetization       =     5.33 Bohr mag/cell
     absolute magnetization    =     5.55 Bohr mag/cell

     iteration #  6     ecut=    30.00 Ry     beta= 0.50
     Davidson diagonalization with overlap
     ethr =  9.22E-09,  avg # of iterations =  1.0

     total cpu time spent up to now is      117.9 secs

     total energy              =    -111.58088436 Ry
     estimated scf accuracy    <       0.00000006 Ry

     total magnetization       =     5.33 Bohr mag/cell
     absolute magnetization    =     5.55 Bohr mag/cell

     iteration #  7     ecut=    30.00 Ry     beta= 0.50
     Davidson diagonalization with overlap
     ethr =  4.04E-10,  avg # of iterations =  5.4

     total cpu time spent up to now is      121.7 secs

     total energy              =    -111.58088448 Ry
     estimated scf accuracy    <       0.00000012 Ry

     total magnetization       =     5.33 Bohr mag/cell
     absolute magnetization    =     5.55 Bohr mag/cell

     iteration #  8     ecut=    30.00 Ry     beta= 0.50
     Davidson diagonalization with overlap
     ethr =  4.04E-10,  avg # of iterations =  1.2

     total cpu time spent up to now is      123.8 secs

     total energy              =    -111.58088449 Ry
     estimated scf accuracy    <          1.8E-09 Ry

     total magnetization       =     5.33 Bohr mag/cell
     absolute magnetization    =     5.54 Bohr mag/cell

     iteration #  9     ecut=    30.00 Ry     beta= 0.50
     Davidson diagonalization with overlap
     ethr =  1.11E-11,  avg # of iterations =  6.2

     total cpu time spent up to now is      128.4 secs

     total energy              =    -111.58088450 Ry
     estimated scf accuracy    <          1.9E-09 Ry

     total magnetization       =     5.33 Bohr mag/cell
     absolute magnetization    =     5.54 Bohr mag/cell

     iteration # 10     ecut=    30.00 Ry     beta= 0.50
     Davidson diagonalization with overlap
     ethr =  1.11E-11,  avg # of iterations =  1.0

     Magnetic moment per site  (integrated on atomic sphere of radius R)
     atom   1 (R=0.388)  charge=  6.5745  magn=  2.7042
     atom   2 (R=0.388)  charge=  6.5748  magn=  2.7043

     total cpu time spent up to now is      130.6 secs

     End of self-consistent calculation

     Number of k-points >= 100: set verbosity='high' to print the bands.

     the Fermi energy is    12.7506 ev

!    total energy              =    -111.58088450 Ry
     estimated scf accuracy    <          1.3E-10 Ry
     smearing contrib. (-TS)   =      -0.00038524 Ry
     internal energy E=F+TS    =    -111.58049926 Ry

     The total energy is F=E-TS. E is the sum of the following terms:
     one-electron contribution =      12.52739042 Ry
     hartree contribution      =      13.85231857 Ry
     xc contribution           =     -52.92144194 Ry
     ewald contribution        =     -85.03876631 Ry

     total magnetization       =     5.33 Bohr mag/cell
     absolute magnetization    =     5.54 Bohr mag/cell

     convergence has been achieved in  10 iterations

     Forces acting on atoms (cartesian axes, Ry/au):

     atom    1 type  1   force =     0.00000000   -0.00000117    0.00000000
     atom    2 type  1   force =     0.00000000    0.00000117    0.00000000

     Total force =     0.000002     Total SCF correction =     0.000000


     Computing stress (Cartesian axis) and pressure

          total   stress  (Ry/bohr**3)                   (kbar)     P=        9.87
   0.00007427   0.00000000   0.00000000           10.93        0.00        0.00
   0.00000000   0.00007422   0.00000000            0.00       10.92        0.00
   0.00000000   0.00000000   0.00005289            0.00        0.00        7.78

     Energy error            =      5.9E-04 Ry
     Gradient error          =      1.2E-06 Ry/Bohr
     Cell gradient error     =      1.1E+01 kbar

     number of scf cycles    =   5
     number of bfgs steps    =   4

     enthalpy           old  =    -111.5802982355 Ry
     enthalpy           new  =    -111.5808844976 Ry

     CASE: enthalpy          _new < enthalpy          _old

     new trust radius        =       0.0072183230 bohr
     new conv_thr            =       0.0000000010 Ry

     new unit-cell volume =    165.09855 a.u.^3 (    24.46508 Ang^3 )
     density =      7.58083 g/cm^3

CELL_PARAMETERS (angstrom)
   2.539478396   0.000000000   0.000000000
  -1.269739198   2.199237773   0.000000000
   0.000000000   0.000000000   4.380563311

ATOMIC_POSITIONS (angstrom)
Fe               0.0000000000       -0.0000028731        0.0000000000
Fe               0.0000000000        1.4661654076        2.1902816555


     Message from routine punch:
     Nothing written, as per user request (disk_io='none')
     NEW-OLD atomic charge density approx. for the potential
     New effective cutoffs (rho, wfc):  338.86   33.89

     Check: negative core charge=   -0.000003
     Generating pointlists ...

     total cpu time spent up to now is      131.7 secs

     Self-consistent Calculation

     iteration #  1     ecut=    30.00 Ry     beta= 0.50
     Davidson diagonalization with overlap
     ethr =  1.00E-06,  avg # of iterations =  3.1

     Threshold (ethr) on eigenvalues was too large:
     Diagonalizing with lowered threshold

     Davidson diagonalization with overlap
     ethr =  6.74E-08,  avg # of iterations =  1.9

     total cpu time spent up to now is      137.0 secs

     total energy              =    -111.58092219 Ry
     estimated scf accuracy    <       0.00000993 Ry

     total magnetization       =     5.35 Bohr mag/cell
     absolute magnetization    =     5.56 Bohr mag/cell

     iteration #  2     ecut=    30.00 Ry     beta= 0.50
     Davidson diagonalization with overlap
     ethr =  6.21E-08,  avg # of iterations =  1.5

     total cpu time spent up to now is      139.0 secs

     total energy              =    -111.58092432 Ry
     estimated scf accuracy    <       0.00000610 Ry

     total magnetization       =     5.35 Bohr mag/cell
     absolute magnetization    =     5.57 Bohr mag/cell

     iteration #  3     ecut=    30.00 Ry     beta= 0.50
     Davidson diagonalization with overlap
     ethr =  3.81E-08,  avg # of iterations =  1.9

     total cpu time spent up to now is      140.9 secs

     total energy              =    -111.58092242 Ry
     estimated scf accuracy    <       0.00006378 Ry

     total magnetization       =     5.36 Bohr mag/cell
     absolute magnetization    =     5.57 Bohr mag/cell

     iteration #  4     ecut=    30.00 Ry     beta= 0.50
     Davidson diagonalization with overlap
     ethr =  3.81E-08,  avg # of iterations =  1.3

     total cpu time spent up to now is      143.0 secs

     total energy              =    -111.58092730 Ry
     estimated scf accuracy    <       0.00000284 Ry

     total magnetization       =     5.36 Bohr mag/cell
     absolute magnetization    =     5.57 Bohr mag/cell

     iteration #  5     ecut=    30.00 Ry     beta= 0.50
     Davidson diagonalization with overlap
     ethr =  1.77E-08,  avg # of iterations =  1.8

     total cpu time spent up to now is      144.9 secs

     total energy              =    -111.58092815 Ry
     estimated scf accuracy    <       0.00000012 Ry

     total magnetization       =     5.36 Bohr mag/cell
     absolute magnetization    =     5.58 Bohr mag/cell

     iteration #  6     ecut=    30.00 Ry     beta= 0.50
     Davidson diagonalization with overlap
     ethr =  7.60E-10,  avg # of iterations =  3.1

     total cpu time spent up to now is      147.6 secs

     total energy              =    -111.58092824 Ry
     estimated scf accuracy    <       0.00000011 Ry

     total magnetization       =     5.36 Bohr mag/cell
     absolute magnetization    =     5.58 Bohr mag/cell

     iteration #  7     ecut=    30.00 Ry     beta= 0.50
     Davidson diagonalization with overlap
     ethr =  7.08E-10,  avg # of iterations =  1.3

     total cpu time spent up to now is      149.3 secs

     total energy              =    -111.58092825 Ry
     estimated scf accuracy    <          7.8E-09 Ry

     total magnetization       =     5.36 Bohr mag/cell
     absolute magnetization    =     5.58 Bohr mag/cell

     iteration #  8     ecut=    30.00 Ry     beta= 0.50
     Davidson diagonalization with overlap
     ethr =  4.88E-11,  avg # of iterations =  4.5

     Magnetic moment per site  (integrated on atomic sphere of radius R)
     atom   1 (R=0.388)  charge=  6.5665  magn=  2.7198
     atom   2 (R=0.388)  charge=  6.5669  magn=  2.7199

     total cpu time spent up to now is      152.0 secs

     End of self-consistent calculation

     Number of k-points >= 100: set verbosity='high' to print the bands.

     the Fermi energy is    12.6616 ev

!    total energy              =    -111.58092826 Ry
     estimated scf accuracy    <          2.4E-10 Ry
     smearing contrib. (-TS)   =      -0.00038221 Ry
     internal energy E=F+TS    =    -111.58054605 Ry

     The total energy is F=E-TS. E is the sum of the following terms:
     one-electron contribution =      12.28851667 Ry
     hartree contribution      =      13.91535567 Ry
     xc contribution           =     -52.91648177 Ry
     ewald contribution        =     -84.86793662 Ry

     total magnetization       =     5.36 Bohr mag/cell
     absolute magnetization    =     5.58 Bohr mag/cell

     convergence has been achieved in   8 iterations

     Forces acting on atoms (cartesian axes, Ry/au):

     atom    1 type  1   force =     0.00000000   -0.00000112    0.00000000
     atom    2 type  1   force =     0.00000000    0.00000112    0.00000000

     Total force =     0.000002     Total SCF correction =     0.000000
     SCF correction compared to forces is large: reduce conv_thr to get better values


     Computing stress (Cartesian axis) and pressure

          total   stress  (Ry/bohr**3)                   (kbar)     P=        1.80
   0.00001415   0.00000000   0.00000000            2.08        0.00        0.00
   0.00000000   0.00001409  -0.00000000            0.00        2.07       -0.00
   0.00000000  -0.00000000   0.00000847            0.00       -0.00        1.25

     Energy error            =      4.4E-05 Ry
     Gradient error          =      1.1E-06 Ry/Bohr
     Cell gradient error     =      2.1E+00 kbar

     number of scf cycles    =   6
     number of bfgs steps    =   5

     enthalpy           old  =    -111.5808844976 Ry
     enthalpy           new  =    -111.5809282585 Ry

     CASE: enthalpy          _new < enthalpy          _old

     new trust radius        =       0.0017831666 bohr
     new conv_thr            =       0.0000000010 Ry

     new unit-cell volume =    165.33040 a.u.^3 (    24.49944 Ang^3 )
     density =      7.57020 g/cm^3

CELL_PARAMETERS (angstrom)
   2.541240514   0.000000000   0.000000000
  -1.270620257   2.200759470  -0.000000000
   0.000000000  -0.000000000   4.380641936

ATOMIC_POSITIONS (angstrom)
Fe               0.0000000000       -0.0000035205        0.0000000000
Fe               0.0000000000        1.4671805223        2.1903209680


     Message from routine punch:
     Nothing written, as per user request (disk_io='none')
     NEW-OLD atomic charge density approx. for the potential
     New effective cutoffs (rho, wfc):  338.39   33.84

     Check: negative core charge=   -0.000003
     Generating pointlists ...

     total cpu time spent up to now is      153.1 secs

     Self-consistent Calculation

     iteration #  1     ecut=    30.00 Ry     beta= 0.50
     Davidson diagonalization with overlap
     ethr =  1.00E-06,  avg # of iterations =  2.2

     Threshold (ethr) on eigenvalues was too large:
     Diagonalizing with lowered threshold

     Davidson diagonalization with overlap
     ethr =  4.53E-09,  avg # of iterations =  2.7

     total cpu time spent up to now is      158.2 secs

     total energy              =    -111.58092962 Ry
     estimated scf accuracy    <       0.00000057 Ry

     total magnetization       =     5.37 Bohr mag/cell
     absolute magnetization    =     5.58 Bohr mag/cell

     iteration #  2     ecut=    30.00 Ry     beta= 0.50
     Davidson diagonalization with overlap
     ethr =  3.57E-09,  avg # of iterations =  1.5

     total cpu time spent up to now is      160.2 secs

     total energy              =    -111.58092961 Ry
     estimated scf accuracy    <       0.00000077 Ry

     total magnetization       =     5.37 Bohr mag/cell
     absolute magnetization    =     5.58 Bohr mag/cell

     iteration #  3     ecut=    30.00 Ry     beta= 0.50
     Davidson diagonalization with overlap
     ethr =  3.57E-09,  avg # of iterations =  1.2

     total cpu time spent up to now is      162.3 secs

     total energy              =    -111.58092970 Ry
     estimated scf accuracy    <       0.00000280 Ry

     total magnetization       =     5.37 Bohr mag/cell
     absolute magnetization    =     5.58 Bohr mag/cell

     iteration #  4     ecut=    30.00 Ry     beta= 0.50
     Davidson diagonalization with overlap
     ethr =  3.57E-09,  avg # of iterations =  1.1

     total cpu time spent up to now is      164.7 secs

     total energy              =    -111.58092992 Ry
     estimated scf accuracy    <       0.00000008 Ry

     total magnetization       =     5.37 Bohr mag/cell
     absolute magnetization    =     5.58 Bohr mag/cell

     iteration #  5     ecut=    30.00 Ry     beta= 0.50
     Davidson diagonalization with overlap
     ethr =  5.07E-10,  avg # of iterations =  2.1

     total cpu time spent up to now is      166.7 secs

     total energy              =    -111.58092996 Ry
     estimated scf accuracy    <          6.8E-09 Ry

     total magnetization       =     5.37 Bohr mag/cell
     absolute magnetization    =     5.58 Bohr mag/cell

     iteration #  6     ecut=    30.00 Ry     beta= 0.50
     Davidson diagonalization with overlap
     ethr =  4.22E-11,  avg # of iterations =  3.4

     total cpu time spent up to now is      169.4 secs

     total energy              =    -111.58092997 Ry
     estimated scf accuracy    <          6.8E-09 Ry

     total magnetization       =     5.37 Bohr mag/cell
     absolute magnetization    =     5.59 Bohr mag/cell

     iteration #  7     ecut=    30.00 Ry     beta= 0.50
     Davidson diagonalization with overlap
     ethr =  4.22E-11,  avg # of iterations =  1.5

     Magnetic moment per site  (integrated on atomic sphere of radius R)
     atom   1 (R=0.388)  charge=  6.5646  magn=  2.7234
     atom   2 (R=0.388)  charge=  6.5651  magn=  2.7235

     total cpu time spent up to now is      171.5 secs

     End of self-consistent calculation

     Number of k-points >= 100: set verbosity='high' to print the bands.

     the Fermi energy is    12.6416 ev

!    total energy              =    -111.58092997 Ry
     estimated scf accuracy    <          4.0E-10 Ry
     smearing contrib. (-TS)   =      -0.00037720 Ry
     internal energy E=F+TS    =    -111.58055277 Ry

     The total energy is F=E-TS. E is the sum of the following terms:
     one-electron contribution =      12.23433344 Ry
     hartree contribution      =      13.92970894 Ry
     xc contribution           =     -52.91541143 Ry
     ewald contribution        =     -84.82918372 Ry

     total magnetization       =     5.37 Bohr mag/cell
     absolute magnetization    =     5.59 Bohr mag/cell

     convergence has been achieved in   7 iterations

     Forces acting on atoms (cartesian axes, Ry/au):

     atom    1 type  1   force =     0.00000000   -0.00000135   -0.00000000
     atom    2 type  1   force =     0.00000000    0.00000135    0.00000000

     Total force =     0.000002     Total SCF correction =     0.000000


     Computing stress (Cartesian axis) and pressure

          total   stress  (Ry/bohr**3)                   (kbar)     P=        0.30
   0.00000205   0.00000000   0.00000000            0.30        0.00        0.00
   0.00000000   0.00000198   0.00000000            0.00        0.29        0.00
   0.00000000   0.00000000   0.00000215            0.00        0.00        0.32

     Energy error            =      1.7E-06 Ry
     Gradient error          =      1.4E-06 Ry/Bohr
     Cell gradient error     =      3.2E-01 kbar

     bfgs converged in   7 scf cycles and   6 bfgs steps
     (criteria: energy <  1.0E-04 Ry, force <  1.0E-03 Ry/Bohr, cell <  5.0E-01 kbar)

     End of BFGS Geometry Optimization

     Final enthalpy           =    -111.5809299688 Ry

     File /home/bond/Work/Lab4/1A/Fe_hcp_nk_12_relax/pwscf.bfgs deleted, as requested
Begin final coordinates
     new unit-cell volume =    165.33040 a.u.^3 (    24.49944 Ang^3 )
     density =      7.57020 g/cm^3

CELL_PARAMETERS (angstrom)
   2.541240514   0.000000000   0.000000000
  -1.270620257   2.200759470  -0.000000000
   0.000000000  -0.000000000   4.380641936

ATOMIC_POSITIONS (angstrom)
Fe               0.0000000000       -0.0000035205        0.0000000000
Fe               0.0000000000        1.4671805223        2.1903209680
End final coordinates


     Message from routine punch:
     Nothing written, as per user request (disk_io='none')

     Final scf calculation at the relaxed structure.
     The G-vectors are recalculated for the final unit cell
     Results may differ from those at the preceding step.

     Parallelization info
     --------------------
     sticks:   dense  smooth     PW     G-vecs:    dense   smooth      PW
     Min         237      99     30                 7247     1859     360
     Max         238     100     31                 7252     1860     365
     Sum         475     199     61                14499     3719     725

     Using Slab Decomposition



     bravais-lattice index     =            0
     lattice parameter (alat)  =       5.1023  a.u.
     unit-cell volume          =     165.3304 (a.u.)^3
     number of atoms/cell      =            2
     number of atomic types    =            1
     number of electrons       =        16.00
     number of Kohn-Sham states=           12
     kinetic-energy cutoff     =      30.0000  Ry
     charge density cutoff     =     300.0000  Ry
     scf convergence threshold =      1.0E-09
     mixing beta               =       0.5000
     number of iterations used =            8  plain     mixing
     press convergence thresh. =      5.0E-01
     Exchange-correlation=  SLA  PW   PBE  PBE
                           (   1   4   3   4   0   0   0)

     celldm(1)=   5.102261  celldm(2)=   0.000000  celldm(3)=   0.000000
     celldm(4)=   0.000000  celldm(5)=   0.000000  celldm(6)=   0.000000

     crystal axes: (cart. coord. in units of alat)
               a(1) = (   0.941200   0.000000   0.000000 )  
               a(2) = (  -0.470600   0.815096  -0.000000 )  
               a(3) = (   0.000000  -0.000000   1.622460 )  

     reciprocal axes: (cart. coord. in units 2 pi/alat)
               b(1) = (  1.062473  0.613425  0.000000 )  
               b(2) = ( -0.000000  1.226849  0.000000 )  
               b(3) = ( -0.000000  0.000000  0.616348 )  


     PseudoPot. # 1 for Fe read from file:
     /home/bond/Software/QE/qe-7.4.1/pseudo/Fe.pbe-nd-rrkjus.UPF
     MD5 check sum: 398036227a04b607635f6f5e8dfd8242
     Pseudo is Ultrasoft + core correction, Zval =  8.0
     Generated by new atomic code, or converted to UPF format
     Using radial grid of  957 points,  6 beta functions with: 
                l(1) =   0
                l(2) =   0
                l(3) =   1
                l(4) =   1
                l(5) =   2
                l(6) =   2
     Q(r) pseudized with 0 coefficients 


     atomic species   valence    mass     pseudopotential
     Fe                8.00    55.84500     Fe( 1.00)

     Starting magnetic structure 
     atomic species   magnetization
     Fe              0.415

      4 Sym. Ops. (no inversion) found



   Cartesian axes

     site n.     atom                  positions (alat units)
         1        Fe     tau(   1) = (   0.0000000  -0.0000013   0.0000000  )
         2        Fe     tau(   2) = (   0.0000000   0.5434002   0.8112300  )

     number of k points=   172  Methfessel-Paxton smearing, width (Ry)=  0.0200

     Number of k-points >= 100: set verbosity='high' to print them.

     Dense  grid:    14499 G-vectors     FFT dimensions: (  27,  27,  45)

     Smooth grid:     3719 G-vectors     FFT dimensions: (  18,  18,  30)

     Estimated max dynamical RAM per process >      46.80 MB

     Estimated total dynamical RAM >      93.60 MB

     Check: negative core charge=   -0.000006
     Generating pointlists ...

     Initial potential from superposition of free atoms

     starting charge      15.9987, renormalised to      16.0000
     Starting wfcs are   12 randomized atomic wfcs

     total cpu time spent up to now is      174.0 secs

     Self-consistent Calculation

     iteration #  1     ecut=    30.00 Ry     beta= 0.50
     Davidson diagonalization with overlap
     c_bands:  1 eigenvalues not converged
     c_bands:  1 eigenvalues not converged
     c_bands:  1 eigenvalues not converged
     c_bands:  1 eigenvalues not converged
     c_bands:  1 eigenvalues not converged
     c_bands:  1 eigenvalues not converged
     c_bands:  1 eigenvalues not converged
     c_bands:  1 eigenvalues not converged
     c_bands:  1 eigenvalues not converged
     c_bands:  1 eigenvalues not converged
     c_bands:  2 eigenvalues not converged
     c_bands:  1 eigenvalues not converged
     c_bands:  1 eigenvalues not converged
     c_bands:  1 eigenvalues not converged
     c_bands:  1 eigenvalues not converged
     c_bands:  1 eigenvalues not converged
     c_bands:  1 eigenvalues not converged
     c_bands:  1 eigenvalues not converged
     c_bands:  1 eigenvalues not converged
     c_bands:  1 eigenvalues not converged
     c_bands:  1 eigenvalues not converged
     c_bands:  1 eigenvalues not converged
     c_bands:  1 eigenvalues not converged
     c_bands:  1 eigenvalues not converged
     c_bands:  1 eigenvalues not converged
     c_bands:  1 eigenvalues not converged
     c_bands:  1 eigenvalues not converged
     c_bands:  1 eigenvalues not converged
     c_bands:  1 eigenvalues not converged
     c_bands:  1 eigenvalues not converged
     c_bands:  1 eigenvalues not converged
     c_bands:  1 eigenvalues not converged
     c_bands:  2 eigenvalues not converged
     c_bands:  1 eigenvalues not converged
     c_bands:  1 eigenvalues not converged
     c_bands:  1 eigenvalues not converged
     c_bands:  1 eigenvalues not converged
     c_bands:  1 eigenvalues not converged
     c_bands:  1 eigenvalues not converged
     c_bands:  1 eigenvalues not converged
     c_bands:  1 eigenvalues not converged
     c_bands:  1 eigenvalues not converged
     c_bands:  1 eigenvalues not converged
     c_bands:  1 eigenvalues not converged
     c_bands:  1 eigenvalues not converged
     c_bands:  2 eigenvalues not converged
     ethr =  1.00E-06,  avg # of iterations = 15.7

     total cpu time spent up to now is      186.2 secs

     total energy              =    -111.31168090 Ry
     estimated scf accuracy    <       0.70240623 Ry

     total magnetization       =     5.04 Bohr mag/cell
     absolute magnetization    =     5.04 Bohr mag/cell

     iteration #  2     ecut=    30.00 Ry     beta= 0.50
     Davidson diagonalization with overlap
     ethr =  4.39E-03,  avg # of iterations =  2.3

     total cpu time spent up to now is      189.3 secs

     total energy              =    -111.54873422 Ry
     estimated scf accuracy    <       0.15276988 Ry

     total magnetization       =     5.31 Bohr mag/cell
     absolute magnetization    =     5.33 Bohr mag/cell

     iteration #  3     ecut=    30.00 Ry     beta= 0.50
     Davidson diagonalization with overlap
     ethr =  9.55E-04,  avg # of iterations =  1.4

     total cpu time spent up to now is      190.9 secs

     total energy              =    -111.57270231 Ry
     estimated scf accuracy    <       0.00936474 Ry

     total magnetization       =     5.34 Bohr mag/cell
     absolute magnetization    =     5.38 Bohr mag/cell

     iteration #  4     ecut=    30.00 Ry     beta= 0.50
     Davidson diagonalization with overlap
     ethr =  5.85E-05,  avg # of iterations =  3.1

     total cpu time spent up to now is      193.3 secs

     total energy              =    -111.57890103 Ry
     estimated scf accuracy    <       0.01022471 Ry

     total magnetization       =     5.31 Bohr mag/cell
     absolute magnetization    =     5.45 Bohr mag/cell

     iteration #  5     ecut=    30.00 Ry     beta= 0.50
     Davidson diagonalization with overlap
     ethr =  5.85E-05,  avg # of iterations =  1.1

     total cpu time spent up to now is      194.9 secs

     total energy              =    -111.57718888 Ry
     estimated scf accuracy    <       0.03422075 Ry

     total magnetization       =     5.31 Bohr mag/cell
     absolute magnetization    =     5.47 Bohr mag/cell

     iteration #  6     ecut=    30.00 Ry     beta= 0.50
     Davidson diagonalization with overlap
     ethr =  5.85E-05,  avg # of iterations =  2.0

     total cpu time spent up to now is      196.6 secs

     total energy              =    -111.58012911 Ry
     estimated scf accuracy    <       0.00242391 Ry

     total magnetization       =     5.34 Bohr mag/cell
     absolute magnetization    =     5.55 Bohr mag/cell

     iteration #  7     ecut=    30.00 Ry     beta= 0.50
     Davidson diagonalization with overlap
     ethr =  1.51E-05,  avg # of iterations =  1.7

     total cpu time spent up to now is      198.4 secs

     total energy              =    -111.58049100 Ry
     estimated scf accuracy    <       0.00008053 Ry

     total magnetization       =     5.35 Bohr mag/cell
     absolute magnetization    =     5.56 Bohr mag/cell

     iteration #  8     ecut=    30.00 Ry     beta= 0.50
     Davidson diagonalization with overlap
     ethr =  5.03E-07,  avg # of iterations =  3.5

     total cpu time spent up to now is      200.6 secs

     total energy              =    -111.58052993 Ry
     estimated scf accuracy    <       0.00001054 Ry

     total magnetization       =     5.36 Bohr mag/cell
     absolute magnetization    =     5.57 Bohr mag/cell

     iteration #  9     ecut=    30.00 Ry     beta= 0.50
     Davidson diagonalization with overlap
     ethr =  6.59E-08,  avg # of iterations =  4.9

     total cpu time spent up to now is      203.3 secs

     total energy              =    -111.58054075 Ry
     estimated scf accuracy    <       0.00000746 Ry

     total magnetization       =     5.36 Bohr mag/cell
     absolute magnetization    =     5.58 Bohr mag/cell

     iteration # 10     ecut=    30.00 Ry     beta= 0.50
     Davidson diagonalization with overlap
     ethr =  4.66E-08,  avg # of iterations =  1.6

     total cpu time spent up to now is      205.3 secs

     total energy              =    -111.58053831 Ry
     estimated scf accuracy    <       0.00000845 Ry

     total magnetization       =     5.37 Bohr mag/cell
     absolute magnetization    =     5.58 Bohr mag/cell

     iteration # 11     ecut=    30.00 Ry     beta= 0.50
     Davidson diagonalization with overlap
     ethr =  4.66E-08,  avg # of iterations =  2.4

     total cpu time spent up to now is      207.0 secs

     total energy              =    -111.58054090 Ry
     estimated scf accuracy    <       0.00000007 Ry

     total magnetization       =     5.37 Bohr mag/cell
     absolute magnetization    =     5.59 Bohr mag/cell

     iteration # 12     ecut=    30.00 Ry     beta= 0.50
     Davidson diagonalization with overlap
     ethr =  4.18E-10,  avg # of iterations =  9.5

     total cpu time spent up to now is      211.8 secs

     total energy              =    -111.58054130 Ry
     estimated scf accuracy    <       0.00000002 Ry

     total magnetization       =     5.37 Bohr mag/cell
     absolute magnetization    =     5.59 Bohr mag/cell

     iteration # 13     ecut=    30.00 Ry     beta= 0.50
     Davidson diagonalization with overlap
     ethr =  1.45E-10,  avg # of iterations =  3.3

     total cpu time spent up to now is      214.5 secs

     total energy              =    -111.58054131 Ry
     estimated scf accuracy    <          9.0E-09 Ry

     total magnetization       =     5.37 Bohr mag/cell
     absolute magnetization    =     5.59 Bohr mag/cell

     iteration # 14     ecut=    30.00 Ry     beta= 0.50
     Davidson diagonalization with overlap
     ethr =  5.63E-11,  avg # of iterations =  2.9

     Magnetic moment per site  (integrated on atomic sphere of radius R)
     atom   1 (R=0.388)  charge=  6.5644  magn=  2.7237
     atom   2 (R=0.388)  charge=  6.5655  magn=  2.7238

     total cpu time spent up to now is      216.3 secs

     End of self-consistent calculation

     Number of k-points >= 100: set verbosity='high' to print the bands.

     the Fermi energy is    12.6431 ev

!    total energy              =    -111.58054132 Ry
     estimated scf accuracy    <          1.8E-10 Ry
     smearing contrib. (-TS)   =      -0.00037535 Ry
     internal energy E=F+TS    =    -111.58016596 Ry

     The total energy is F=E-TS. E is the sum of the following terms:
     one-electron contribution =      12.23517564 Ry
     hartree contribution      =      13.93028348 Ry
     xc contribution           =     -52.91644136 Ry
     ewald contribution        =     -84.82918372 Ry

     total magnetization       =     5.37 Bohr mag/cell
     absolute magnetization    =     5.59 Bohr mag/cell

     convergence has been achieved in  14 iterations

     Forces acting on atoms (cartesian axes, Ry/au):

     atom    1 type  1   force =     0.00000000   -0.00000157   -0.00000000
     atom    2 type  1   force =     0.00000000    0.00000157    0.00000000

     Total force =     0.000002     Total SCF correction =     0.000000
     SCF correction compared to forces is large: reduce conv_thr to get better values


     Computing stress (Cartesian axis) and pressure

          total   stress  (Ry/bohr**3)                   (kbar)     P=       -1.01
  -0.00001205   0.00000000   0.00000000           -1.77        0.00        0.00
   0.00000000  -0.00001212  -0.00000000            0.00       -1.78       -0.00
   0.00000000  -0.00000000   0.00000363            0.00       -0.00        0.53

     Message from routine punch:
     Nothing written, as per user request (disk_io='none')

     init_run     :      2.29s CPU      2.80s WALL (       2 calls)
     electrons    :    180.94s CPU    206.36s WALL (       8 calls)
     update_pot   :      0.13s CPU      0.13s WALL (       6 calls)
     forces       :      1.20s CPU      1.24s WALL (       8 calls)
     stress       :      6.21s CPU      6.31s WALL (       8 calls)

     Called by init_run:
     wfcinit      :      1.63s CPU      2.12s WALL (       2 calls)
     potinit      :      0.16s CPU      0.17s WALL (       2 calls)
     hinit0       :      0.41s CPU      0.41s WALL (       2 calls)

     Called by electrons:
     c_bands      :    153.38s CPU    175.09s WALL (      80 calls)
     sum_band     :     24.15s CPU     27.62s WALL (      80 calls)
     v_of_rho     :      1.50s CPU      1.61s WALL (      86 calls)
     newd         :      2.04s CPU      2.13s WALL (      86 calls)
     mix_rho      :      0.10s CPU      0.13s WALL (      80 calls)

     Called by c_bands:
     init_us_2    :      3.64s CPU      4.16s WALL (   61232 calls)
     cegterg      :    142.96s CPU    163.23s WALL (   27520 calls)

     Called by *egterg:
     cdiaghg      :     12.86s CPU     14.63s WALL (  108177 calls)
     h_psi        :    116.19s CPU    133.05s WALL (  111617 calls)
     s_psi        :      2.29s CPU      2.63s WALL (  111617 calls)
     g_psi        :      0.66s CPU      0.74s WALL (   83409 calls)

     Called by h_psi:
     h_psi:calbec :      4.31s CPU      4.92s WALL (  111617 calls)
     vloc_psi     :    108.61s CPU    124.38s WALL (  111617 calls)
     add_vuspsi   :      2.43s CPU      2.82s WALL (  111617 calls)

     General routines
     calbec       :      7.11s CPU      8.01s WALL (  185921 calls)
     fft          :      0.81s CPU      0.87s WALL (    2464 calls)
     ffts         :      0.13s CPU      0.14s WALL (     332 calls)
     fftw         :    110.73s CPU    127.15s WALL ( 2270296 calls)
     interpolate  :      0.17s CPU      0.18s WALL (     172 calls)

     Parallel routines

     PWSCF        :   3m11.04s CPU   3m37.12s WALL


   This run was terminated on:  18: 6:19  20Oct2025            

=------------------------------------------------------------------------------=
   JOB DONE.
=------------------------------------------------------------------------------=
