LAMMPS (22 Jul 2025 - Update 1)
Reading data file ...
  orthogonal box = (0 0 0) to (8.7451919 7.5735584 58.082236)
  1 by 1 by 1 MPI processor grid
  reading atoms ...
  153 atoms
  read_data CPU = 0.001 seconds
WARNING: No fixes with time integration, atoms won't move
For more information see https://docs.lammps.org/err0028 (../verlet.cpp:60)
Generated 0 of 0 mixed pair_coeff terms from geometric mixing rule
Neighbor list info ...
  update: every = 1 steps, delay = 0 steps, check = yes
  max neighbors/atom: 2000, page size: 100000
  master list distance cutoff = 6.5
  ghost atom cutoff = 6.5
  binsize = 3.25, bins = 3 3 18
  1 neighbor lists, perpetual/occasional/extra = 1 0 0
  (1) pair lj/cut, perpetual
      attributes: half, newton on
      pair build: half/bin/atomonly/newton
      stencil: half/bin/3d
      bin: standard
Setting up Verlet run ...
  Unit style    : metal
  Current step  : 0
  Time step     : 0.001
Per MPI rank memory allocation (min/avg/max) = 3.093 | 3.093 | 3.093 Mbytes
   Step         PotEng           Lx             Ly             Lz           Press           Pxx            Pyy            Pzz      
         0  -325.24792      8.7451919      7.5735584      58.082236      141727.59     -28295.109      357828.34      95649.549    
Loop time of 1.711e-06 on 1 procs for 0 steps with 153 atoms

0.0% CPU use with 1 MPI tasks x no OpenMP threads

MPI task timing breakdown:
Section |  min time  |  avg time  |  max time  |%varavg| %total
---------------------------------------------------------------
Pair    | 0          | 0          | 0          |   0.0 |  0.00
Neigh   | 0          | 0          | 0          |   0.0 |  0.00
Comm    | 0          | 0          | 0          |   0.0 |  0.00
Output  | 0          | 0          | 0          |   0.0 |  0.00
Modify  | 0          | 0          | 0          |   0.0 |  0.00
Other   |            | 1.711e-06  |            |       |100.00

Nlocal:            153 ave         153 max         153 min
Histogram: 1 0 0 0 0 0 0 0 0 0
Nghost:            874 ave         874 max         874 min
Histogram: 1 0 0 0 0 0 0 0 0 0
Neighs:           4290 ave        4290 max        4290 min
Histogram: 1 0 0 0 0 0 0 0 0 0

Total # of neighbors = 4290
Ave neighs/atom = 28.039216
Neighbor list builds = 0
Dangerous builds = 0
Total energy (eV) = -325.247922761564
Number of atoms = 153
Lattice constant (Angstoms) = 8.74519193592377
Total wall time: 0:00:00
