
     Program PWSCF v.7.4.1 starts on 21Oct2025 at  1:40:12 

     This program is part of the open-source Quantum ESPRESSO suite
     for quantum simulation of materials; please cite
         "P. Giannozzi et al., J. Phys.:Condens. Matter 21 395502 (2009);
         "P. Giannozzi et al., J. Phys.:Condens. Matter 29 465901 (2017);
         "P. Giannozzi et al., J. Chem. Phys. 152 154105 (2020);
          URL http://www.quantum-espresso.org", 
     in publications or presentations arising from this work. More details at
     http://www.quantum-espresso.org/quote

     Parallel version (MPI), running on     2 processors

     MPI processes distributed on     1 nodes
     270 MiB available memory on the printing compute node when the environment starts

     Waiting for input...
     Reading input from standard input
Warning: card &CELL ignored
Warning: card / ignored

     Current dimensions of program PWSCF are:
     Max number of different atomic species (ntypx) = 10
     Max number of k-points (npk) =  40000
     Max angular momentum in pseudopotentials (lmaxx) =  4
     file O.pz-rrkjus.UPF: wavefunction(s)  2S renormalized
     Message from routine setup:
     using ibrav=0 with symmetry is DISCOURAGED, use correct ibrav instead

     R & G space division:  proc/nbgrp/npool/nimage =       2
     Subspace diagonalization in iterative solution of the eigenvalue problem:
     a serial algorithm will be used


     Parallelization info
     --------------------
     sticks:   dense  smooth     PW     G-vecs:    dense   smooth      PW
     Min         558     280     88                14212     5028     870
     Max         559     281     89                14213     5031     873
     Sum        1117     561    177                28425    10059    1743

     Using Slab Decomposition



     bravais-lattice index     =            0
     lattice parameter (alat)  =       7.6849  a.u.
     unit-cell volume          =     453.8500 (a.u.)^3
     number of atoms/cell      =            5
     number of atomic types    =            3
     number of electrons       =        44.00
     number of Kohn-Sham states=           22
     kinetic-energy cutoff     =      30.0000  Ry
     charge density cutoff     =     240.0000  Ry
     scf convergence threshold =      1.0E-07
     mixing beta               =       0.7000
     number of iterations used =            8  plain     mixing
     Exchange-correlation= SLA  PZ   NOGX NOGC
                           (   1   1   0   0   0   0   0)

     celldm(1)=   7.684886  celldm(2)=   0.000000  celldm(3)=   0.000000
     celldm(4)=   0.000000  celldm(5)=   0.000000  celldm(6)=   0.000000

     crystal axes: (cart. coord. in units of alat)
               a(1) = (   1.000000   0.000000   0.000000 )  
               a(2) = (   0.000000   1.000000   0.000000 )  
               a(3) = (   0.000000   0.000000   1.000000 )  

     reciprocal axes: (cart. coord. in units 2 pi/alat)
               b(1) = (  1.000000  0.000000  0.000000 )  
               b(2) = (  0.000000  1.000000  0.000000 )  
               b(3) = (  0.000000  0.000000  1.000000 )  


     PseudoPot. # 1 for O  read from file:
     /home/bond/Software/QE/qe-7.4.1/pseudo/O.pz-rrkjus.UPF
     MD5 check sum: 24fb942a68ef5d262e498166c462ef4a
     Pseudo is Ultrasoft, Zval =  6.0
     Generated by new atomic code, or converted to UPF format
     Using radial grid of 1269 points,  4 beta functions with: 
                l(1) =   0
                l(2) =   0
                l(3) =   1
                l(4) =   1
     Q(r) pseudized with 0 coefficients 


     PseudoPot. # 2 for Pb read from file:
     /home/bond/Software/QE/qe-7.4.1/pseudo/Pb.pz-d-van.UPF
     MD5 check sum: 4e1e5920686a026ae26139ac417581ff
     Pseudo is Ultrasoft, Zval = 14.0
     Generated by new atomic code, or converted to UPF format
     Using radial grid of  899 points,  6 beta functions with: 
                l(1) =   0
                l(2) =   0
                l(3) =   1
                l(4) =   1
                l(5) =   2
                l(6) =   2
     Q(r) pseudized with  8 coefficients,  rinner =    1.000   1.000   1.000
                                                       1.000   1.000

     PseudoPot. # 3 for Ti read from file:
     /home/bond/Software/QE/qe-7.4.1/pseudo/Ti.pz-sp-van_ak.UPF
     MD5 check sum: 545d0e6e05332b8871a8093f427cb0ca
     Pseudo is Ultrasoft, Zval = 12.0
     Generated by new atomic code, or converted to UPF format
     Using radial grid of  851 points,  6 beta functions with: 
                l(1) =   0
                l(2) =   0
                l(3) =   1
                l(4) =   1
                l(5) =   2
                l(6) =   2
     Q(r) pseudized with  8 coefficients,  rinner =    1.000   1.000   1.000
                                                       1.000   1.000

     atomic species   valence    mass     pseudopotential
     O                 6.00    15.99900     O ( 1.00)
     Pb               14.00   207.20000     Pb( 1.00)
     Ti               12.00    47.86700     Ti( 1.00)

     48 Sym. Ops., with inversion, found



   Cartesian axes

     site n.     atom                  positions (alat units)
         1        Pb     tau(   1) = (   0.0000000   0.0000000   0.0000000  )
         2        Ti     tau(   2) = (   0.4999992   0.4999992   0.4999992  )
         3        O      tau(   3) = (   0.0000000   0.4999992   0.4999992  )
         4        O      tau(   4) = (   0.4999992   0.0000000   0.4999992  )
         5        O      tau(   5) = (   0.4999992   0.4999992   0.0000000  )

     number of k points=     4
                       cart. coord. in units 2pi/alat
        k(    1) = (   0.1250000   0.1250000   0.1250000), wk =   0.2500000
        k(    2) = (   0.1250000   0.1250000   0.3750000), wk =   0.7500000
        k(    3) = (   0.1250000   0.3750000   0.3750000), wk =   0.7500000
        k(    4) = (   0.3750000   0.3750000   0.3750000), wk =   0.2500000

     Dense  grid:    28425 G-vectors     FFT dimensions: (  40,  40,  40)

     Smooth grid:    10059 G-vectors     FFT dimensions: (  27,  27,  27)

     Estimated max dynamical RAM per process >      57.86 MB

     Estimated total dynamical RAM >     115.71 MB

     Initial potential from superposition of free atoms

     starting charge      42.9982, renormalised to      44.0000
     Starting wfcs are   31 randomized atomic wfcs

     total cpu time spent up to now is        1.5 secs

     Self-consistent Calculation

     iteration #  1     ecut=    30.00 Ry     beta= 0.70
     Davidson diagonalization with overlap
     ethr =  1.00E-02,  avg # of iterations =  2.0

     total cpu time spent up to now is        2.0 secs

     total energy              =    -332.50408417 Ry
     estimated scf accuracy    <       1.17276631 Ry

     iteration #  2     ecut=    30.00 Ry     beta= 0.70
     Davidson diagonalization with overlap
     ethr =  2.67E-03,  avg # of iterations =  8.2

     total cpu time spent up to now is        2.5 secs

     total energy              =    -331.36077913 Ry
     estimated scf accuracy    <      12.07644584 Ry

     iteration #  3     ecut=    30.00 Ry     beta= 0.70
     Davidson diagonalization with overlap
     ethr =  2.67E-03,  avg # of iterations =  7.2

     total cpu time spent up to now is        3.1 secs

     total energy              =    -332.99503104 Ry
     estimated scf accuracy    <       0.41477035 Ry

     iteration #  4     ecut=    30.00 Ry     beta= 0.70
     Davidson diagonalization with overlap
     ethr =  9.43E-04,  avg # of iterations =  4.8

     total cpu time spent up to now is        3.5 secs

     total energy              =    -333.10683615 Ry
     estimated scf accuracy    <       0.15690186 Ry

     iteration #  5     ecut=    30.00 Ry     beta= 0.70
     Davidson diagonalization with overlap
     ethr =  3.57E-04,  avg # of iterations =  3.8

     total cpu time spent up to now is        3.9 secs

     total energy              =    -333.12769402 Ry
     estimated scf accuracy    <       0.00795648 Ry

     iteration #  6     ecut=    30.00 Ry     beta= 0.70
     Davidson diagonalization with overlap
     ethr =  1.81E-05,  avg # of iterations =  5.8

     total cpu time spent up to now is        4.4 secs

     total energy              =    -333.13498699 Ry
     estimated scf accuracy    <       0.00348743 Ry

     iteration #  7     ecut=    30.00 Ry     beta= 0.70
     Davidson diagonalization with overlap
     ethr =  7.93E-06,  avg # of iterations =  1.0

     total cpu time spent up to now is        4.8 secs

     total energy              =    -333.13422588 Ry
     estimated scf accuracy    <       0.00285688 Ry

     iteration #  8     ecut=    30.00 Ry     beta= 0.70
     Davidson diagonalization with overlap
     ethr =  6.49E-06,  avg # of iterations =  3.0

     total cpu time spent up to now is        5.2 secs

     total energy              =    -333.13433214 Ry
     estimated scf accuracy    <       0.00053035 Ry

     iteration #  9     ecut=    30.00 Ry     beta= 0.70
     Davidson diagonalization with overlap
     ethr =  1.21E-06,  avg # of iterations =  4.5

     total cpu time spent up to now is        5.7 secs

     total energy              =    -333.13455529 Ry
     estimated scf accuracy    <       0.00028827 Ry

     iteration # 10     ecut=    30.00 Ry     beta= 0.70
     Davidson diagonalization with overlap
     ethr =  6.55E-07,  avg # of iterations =  4.5

     total cpu time spent up to now is        6.1 secs

     total energy              =    -333.13460354 Ry
     estimated scf accuracy    <       0.00000414 Ry

     iteration # 11     ecut=    30.00 Ry     beta= 0.70
     Davidson diagonalization with overlap
     ethr =  9.42E-09,  avg # of iterations =  6.2

     total cpu time spent up to now is        6.7 secs

     total energy              =    -333.13461014 Ry
     estimated scf accuracy    <       0.00000030 Ry

     iteration # 12     ecut=    30.00 Ry     beta= 0.70
     Davidson diagonalization with overlap
     ethr =  6.91E-10,  avg # of iterations =  5.8

     total cpu time spent up to now is        7.2 secs

     total energy              =    -333.13461028 Ry
     estimated scf accuracy    <       0.00000021 Ry

     iteration # 13     ecut=    30.00 Ry     beta= 0.70
     Davidson diagonalization with overlap
     ethr =  4.71E-10,  avg # of iterations =  3.5

     total cpu time spent up to now is        7.6 secs

     End of self-consistent calculation

          k = 0.1250 0.1250 0.1250 (  1273 PWs)   bands (ev):

   -47.4270 -23.9260 -23.9259 -23.9259  -7.8790  -7.0985  -7.0985  -6.4895
    -6.4895  -6.4806  -6.2861  -6.2861   2.4117   5.5605   5.5605   5.9494
     7.2434   7.2434   7.9057   7.9057   7.9152   7.9675

          k = 0.1250 0.1250 0.3750 (  1254 PWs)   bands (ev):

   -47.4263 -23.9533 -23.9246 -23.9244  -7.5791  -7.0135  -6.9907  -6.5245
    -6.4860  -6.4668  -6.3753  -6.2853   1.9254   5.0624   5.7233   5.9754
     6.4783   6.8978   7.3242   7.9938   8.0545   8.4058

          k = 0.1250 0.3750 0.3750 (  1260 PWs)   bands (ev):

   -47.4258 -23.9526 -23.9526 -23.9232  -7.4520  -6.9566  -6.9149  -6.5090
    -6.4797  -6.4092  -6.3357  -6.1998   1.7424   4.9596   5.1780   5.5766
     5.8469   6.5841   7.3136   7.5628   7.7763   8.6285

          k = 0.3750 0.3750 0.3750 (  1256 PWs)   bands (ev):

   -47.4252 -23.9515 -23.9515 -23.9510  -7.2216  -7.1101  -7.1101  -6.4600
    -6.4600  -6.1666  -6.0984  -6.0984   2.2705   4.5801   4.5801   4.7928
     5.3088   5.3088   5.8611   8.5814   8.5814   8.6661

     highest occupied level (ev):     8.6661

!    total energy              =    -333.13461028 Ry
     estimated scf accuracy    <       0.00000002 Ry

     The total energy is the sum of the following terms:
     one-electron contribution =     -95.31987186 Ry
     hartree contribution      =      71.75988669 Ry
     xc contribution           =     -49.13901776 Ry
     ewald contribution        =    -260.43560735 Ry

     convergence has been achieved in  13 iterations

     Forces acting on atoms (cartesian axes, Ry/au):

     atom    1 type  2   force =     0.00000000    0.00000000    0.00000000
     atom    2 type  3   force =     0.00000000    0.00000000    0.00000000
     atom    3 type  1   force =     0.00000000    0.00000000    0.00000000
     atom    4 type  1   force =     0.00000000    0.00000000    0.00000000
     atom    5 type  1   force =     0.00000000    0.00000000    0.00000000

     Total force =     0.000000     Total SCF correction =     0.000000


     Computing stress (Cartesian axis) and pressure

          total   stress  (Ry/bohr**3)                   (kbar)     P=     -232.31
  -0.00157919   0.00000000   0.00000000         -232.31        0.00        0.00
   0.00000000  -0.00157919   0.00000000            0.00     -232.31        0.00
   0.00000000   0.00000000  -0.00157919            0.00        0.00     -232.31

     Message from routine punch:
     Nothing written, as per user request (disk_io='none')

     init_run     :      1.05s CPU      1.12s WALL (       1 calls)
     electrons    :      5.21s CPU      6.04s WALL (       1 calls)
     forces       :      0.15s CPU      0.17s WALL (       1 calls)
     stress       :      1.34s CPU      1.41s WALL (       1 calls)

     Called by init_run:
     wfcinit      :      0.09s CPU      0.09s WALL (       1 calls)
     potinit      :      0.11s CPU      0.11s WALL (       1 calls)
     hinit0       :      0.67s CPU      0.67s WALL (       1 calls)

     Called by electrons:
     c_bands      :      2.21s CPU      2.32s WALL (      13 calls)
     sum_band     :      1.71s CPU      2.06s WALL (      13 calls)
     v_of_rho     :      0.04s CPU      0.04s WALL (      14 calls)
     newd         :      1.30s CPU      1.71s WALL (      14 calls)
     mix_rho      :      0.02s CPU      0.03s WALL (      13 calls)

     Called by c_bands:
     init_us_2    :      0.05s CPU      0.05s WALL (     116 calls)
     cegterg      :      2.11s CPU      2.22s WALL (      52 calls)

     Called by *egterg:
     cdiaghg      :      0.19s CPU      0.20s WALL (     293 calls)
     h_psi        :      1.72s CPU      1.81s WALL (     297 calls)
     s_psi        :      0.05s CPU      0.05s WALL (     297 calls)
     g_psi        :      0.01s CPU      0.01s WALL (     241 calls)

     Called by h_psi:
     h_psi:calbec :      0.08s CPU      0.09s WALL (     297 calls)
     vloc_psi     :      1.57s CPU      1.65s WALL (     297 calls)
     add_vuspsi   :      0.05s CPU      0.06s WALL (     297 calls)

     General routines
     calbec       :      0.12s CPU      0.13s WALL (     417 calls)
     fft          :      0.27s CPU      0.27s WALL (      87 calls)
     ffts         :      0.07s CPU      0.07s WALL (      27 calls)
     fftw         :      1.59s CPU      1.68s WALL (    8210 calls)
     interpolate  :      0.07s CPU      0.07s WALL (      14 calls)

     Parallel routines

     PWSCF        :      8.17s CPU      9.16s WALL


   This run was terminated on:   1:40:22  21Oct2025            

=------------------------------------------------------------------------------=
   JOB DONE.
=------------------------------------------------------------------------------=
