Header of the LAMMPS data file 

4 atoms 
1 atom types

0.0 4.22  xlo xhi
0.0 4.22  ylo yhi
0.0 4.22  zlo zhi

Masses 

1  26.9815385

Atoms # atomic 

1 1 0.00000 0.00000 0.00000 
2 1 0.00000 2.11000 2.11000 
3 1 2.11000 0.00000 2.11000 
4 1 2.11000 2.11000 0.00000 
