LAMMPS (22 Jul 2025 - Update 1)
Reading data file ...
  orthogonal box = (0 0 0) to (8.7451919 8.7451919 28.490092)
  1 by 1 by 1 MPI processor grid
  reading atoms ...
  81 atoms
  read_data CPU = 0.001 seconds
WARNING: No fixes with time integration, atoms won't move
For more information see https://docs.lammps.org/err0028 (../verlet.cpp:60)
Generated 0 of 0 mixed pair_coeff terms from geometric mixing rule
Neighbor list info ...
  update: every = 1 steps, delay = 0 steps, check = yes
  max neighbors/atom: 2000, page size: 100000
  master list distance cutoff = 6.5
  ghost atom cutoff = 6.5
  binsize = 3.25, bins = 3 3 9
  1 neighbor lists, perpetual/occasional/extra = 1 0 0
  (1) pair lj/cut, perpetual
      attributes: half, newton on
      pair build: half/bin/atomonly/newton
      stencil: half/bin/3d
      bin: standard
Setting up Verlet run ...
  Unit style    : metal
  Current step  : 0
  Time step     : 0.001
Per MPI rank memory allocation (min/avg/max) = 3.064 | 3.064 | 3.064 Mbytes
   Step         PotEng           Lx             Ly             Lz           Press           Pxx            Pyy            Pzz      
         0  -197.59535      8.7451919      8.7451919      28.490092      0.14353873    -1780.8124     -1780.8124      3562.0555    
Loop time of 1.391e-06 on 1 procs for 0 steps with 81 atoms

143.8% CPU use with 1 MPI tasks x no OpenMP threads

MPI task timing breakdown:
Section |  min time  |  avg time  |  max time  |%varavg| %total
---------------------------------------------------------------
Pair    | 0          | 0          | 0          |   0.0 |  0.00
Neigh   | 0          | 0          | 0          |   0.0 |  0.00
Comm    | 0          | 0          | 0          |   0.0 |  0.00
Output  | 0          | 0          | 0          |   0.0 |  0.00
Modify  | 0          | 0          | 0          |   0.0 |  0.00
Other   |            | 1.391e-06  |            |       |100.00

Nlocal:             81 ave          81 max          81 min
Histogram: 1 0 0 0 0 0 0 0 0 0
Nghost:            435 ave         435 max         435 min
Histogram: 1 0 0 0 0 0 0 0 0 0
Neighs:           1917 ave        1917 max        1917 min
Histogram: 1 0 0 0 0 0 0 0 0 0

Total # of neighbors = 1917
Ave neighs/atom = 23.666667
Neighbor list builds = 0
Dangerous builds = 0
Generated 0 of 0 mixed pair_coeff terms from geometric mixing rule
Setting up cg style minimization ...
  Unit style    : metal
  Current step  : 0
WARNING: Energy due to 3 extra global DOFs will be included in minimizer energies
 (../min.cpp:222)
Per MPI rank memory allocation (min/avg/max) = 4.189 | 4.189 | 4.189 Mbytes
   Step         PotEng           Lx             Ly             Lz           Press           Pxx            Pyy            Pzz      
         0  -197.59535      8.7451919      8.7451919      28.490092      0.14353873    -1780.8124     -1780.8124      3562.0555    
       102  -197.62693      8.7266234      8.7266234      28.490092      15.679939     -0.47585875    -0.47585875     47.991534    
Loop time of 0.00771699 on 1 procs for 102 steps with 81 atoms

99.9% CPU use with 1 MPI tasks x no OpenMP threads

Minimization stats:
  Stopping criterion = energy tolerance
  Energy initial, next-to-last, final = 
     -197.595345283732  -197.626925916501  -197.626925933551
  Force two-norm initial, final = 3.5134029 0.0030097463
  Force max component initial, final = 2.4218117 0.0006457689
  Final line search alpha, max atom move = 0.13972794 9.023196e-05
  Iterations, force evaluations = 102 204

MPI task timing breakdown:
Section |  min time  |  avg time  |  max time  |%varavg| %total
---------------------------------------------------------------
Pair    | 0.005201   | 0.005201   | 0.005201   |   0.0 | 67.40
Neigh   | 0          | 0          | 0          |   0.0 |  0.00
Comm    | 0.00040388 | 0.00040388 | 0.00040388 |   0.0 |  5.23
Output  | 0          | 0          | 0          |   0.0 |  0.00
Modify  | 0          | 0          | 0          |   0.0 |  0.00
Other   |            | 0.002112   |            |       | 27.37

Nlocal:             81 ave          81 max          81 min
Histogram: 1 0 0 0 0 0 0 0 0 0
Nghost:            435 ave         435 max         435 min
Histogram: 1 0 0 0 0 0 0 0 0 0
Neighs:           1917 ave        1917 max        1917 min
Histogram: 1 0 0 0 0 0 0 0 0 0

Total # of neighbors = 1917
Ave neighs/atom = 23.666667
Neighbor list builds = 0
Dangerous builds = 0
Total energy (eV) = -197.626925933551
Number of atoms = 81
Lattice constant (Angstoms) = 8.72662335800396
Total wall time: 0:00:00
