
     Program PWSCF v.7.4.1 starts on 21Oct2025 at 12:11:51 

     This program is part of the open-source Quantum ESPRESSO suite
     for quantum simulation of materials; please cite
         "P. Giannozzi et al., J. Phys.:Condens. Matter 21 395502 (2009);
         "P. Giannozzi et al., J. Phys.:Condens. Matter 29 465901 (2017);
         "P. Giannozzi et al., J. Chem. Phys. 152 154105 (2020);
          URL http://www.quantum-espresso.org", 
     in publications or presentations arising from this work. More details at
     http://www.quantum-espresso.org/quote

     Parallel version (MPI), running on     2 processors

     MPI processes distributed on     1 nodes
     439 MiB available memory on the printing compute node when the environment starts

     Waiting for input...
     Reading input from standard input
Warning: card &CELL ignored
Warning: card / ignored

     Current dimensions of program PWSCF are:
     Max number of different atomic species (ntypx) = 10
     Max number of k-points (npk) =  40000
     Max angular momentum in pseudopotentials (lmaxx) =  4
     file O.pz-rrkjus.UPF: wavefunction(s)  2S renormalized
     Message from routine setup:
     using ibrav=0 with symmetry is DISCOURAGED, use correct ibrav instead

     R & G space division:  proc/nbgrp/npool/nimage =       2
     Subspace diagonalization in iterative solution of the eigenvalue problem:
     a serial algorithm will be used


     Parallelization info
     --------------------
     sticks:   dense  smooth     PW     G-vecs:    dense   smooth      PW
     Min         520     258     74                12442     4414     709
     Max         521     259     75                12443     4415     710
     Sum        1041     517    149                24885     8829    1419

     Using Slab Decomposition



     bravais-lattice index     =            0
     lattice parameter (alat)  =       7.3463  a.u.
     unit-cell volume          =     396.4677 (a.u.)^3
     number of atoms/cell      =            5
     number of atomic types    =            3
     number of electrons       =        44.00
     number of Kohn-Sham states=           22
     kinetic-energy cutoff     =      30.0000  Ry
     charge density cutoff     =     240.0000  Ry
     scf convergence threshold =      1.0E-07
     mixing beta               =       0.7000
     number of iterations used =            8  plain     mixing
     Exchange-correlation= SLA  PZ   NOGX NOGC
                           (   1   1   0   0   0   0   0)

     celldm(1)=   7.346310  celldm(2)=   0.000000  celldm(3)=   0.000000
     celldm(4)=   0.000000  celldm(5)=   0.000000  celldm(6)=   0.000000

     crystal axes: (cart. coord. in units of alat)
               a(1) = (   1.000000   0.000000   0.000000 )  
               a(2) = (   0.000000   1.000000   0.000000 )  
               a(3) = (   0.000000   0.000000   1.000000 )  

     reciprocal axes: (cart. coord. in units 2 pi/alat)
               b(1) = (  1.000000  0.000000  0.000000 )  
               b(2) = (  0.000000  1.000000  0.000000 )  
               b(3) = (  0.000000  0.000000  1.000000 )  


     PseudoPot. # 1 for O  read from file:
     /home/bond/Software/QE/qe-7.4.1/pseudo/O.pz-rrkjus.UPF
     MD5 check sum: 24fb942a68ef5d262e498166c462ef4a
     Pseudo is Ultrasoft, Zval =  6.0
     Generated by new atomic code, or converted to UPF format
     Using radial grid of 1269 points,  4 beta functions with: 
                l(1) =   0
                l(2) =   0
                l(3) =   1
                l(4) =   1
     Q(r) pseudized with 0 coefficients 


     PseudoPot. # 2 for Pb read from file:
     /home/bond/Software/QE/qe-7.4.1/pseudo/Pb.pz-d-van.UPF
     MD5 check sum: 4e1e5920686a026ae26139ac417581ff
     Pseudo is Ultrasoft, Zval = 14.0
     Generated by new atomic code, or converted to UPF format
     Using radial grid of  899 points,  6 beta functions with: 
                l(1) =   0
                l(2) =   0
                l(3) =   1
                l(4) =   1
                l(5) =   2
                l(6) =   2
     Q(r) pseudized with  8 coefficients,  rinner =    1.000   1.000   1.000
                                                       1.000   1.000

     PseudoPot. # 3 for Ti read from file:
     /home/bond/Software/QE/qe-7.4.1/pseudo/Ti.pz-sp-van_ak.UPF
     MD5 check sum: 545d0e6e05332b8871a8093f427cb0ca
     Pseudo is Ultrasoft, Zval = 12.0
     Generated by new atomic code, or converted to UPF format
     Using radial grid of  851 points,  6 beta functions with: 
                l(1) =   0
                l(2) =   0
                l(3) =   1
                l(4) =   1
                l(5) =   2
                l(6) =   2
     Q(r) pseudized with  8 coefficients,  rinner =    1.000   1.000   1.000
                                                       1.000   1.000

     atomic species   valence    mass     pseudopotential
     O                 6.00    15.99900     O ( 1.00)
     Pb               14.00   207.20000     Pb( 1.00)
     Ti               12.00    47.86700     Ti( 1.00)

     48 Sym. Ops., with inversion, found



   Cartesian axes

     site n.     atom                  positions (alat units)
         1        Pb     tau(   1) = (   0.0000000   0.0000000   0.0000000  )
         2        Ti     tau(   2) = (   0.5000000   0.5000000   0.5000000  )
         3        O      tau(   3) = (   0.0000000   0.5000000   0.5000000  )
         4        O      tau(   4) = (   0.5000000   0.0000000   0.5000000  )
         5        O      tau(   5) = (   0.5000000   0.5000000   0.0000000  )

     number of k points=     4
                       cart. coord. in units 2pi/alat
        k(    1) = (   0.1250000   0.1250000   0.1250000), wk =   0.2500000
        k(    2) = (   0.1250000   0.1250000   0.3750000), wk =   0.7500000
        k(    3) = (   0.1250000   0.3750000   0.3750000), wk =   0.7500000
        k(    4) = (   0.3750000   0.3750000   0.3750000), wk =   0.2500000

     Dense  grid:    24885 G-vectors     FFT dimensions: (  40,  40,  40)

     Smooth grid:     8829 G-vectors     FFT dimensions: (  25,  25,  25)

     Estimated max dynamical RAM per process >      51.39 MB

     Estimated total dynamical RAM >     102.78 MB

     Initial potential from superposition of free atoms

     starting charge      42.9982, renormalised to      44.0000
     Starting wfcs are   31 randomized atomic wfcs

     total cpu time spent up to now is        1.4 secs

     Self-consistent Calculation

     iteration #  1     ecut=    30.00 Ry     beta= 0.70
     Davidson diagonalization with overlap
     ethr =  1.00E-02,  avg # of iterations =  2.0

     total cpu time spent up to now is        1.7 secs

     total energy              =    -332.60812344 Ry
     estimated scf accuracy    <       1.10946139 Ry

     iteration #  2     ecut=    30.00 Ry     beta= 0.70
     Davidson diagonalization with overlap
     ethr =  2.52E-03,  avg # of iterations =  7.8

     total cpu time spent up to now is        2.1 secs

     total energy              =    -332.18605905 Ry
     estimated scf accuracy    <       5.29934684 Ry

     iteration #  3     ecut=    30.00 Ry     beta= 0.70
     Davidson diagonalization with overlap
     ethr =  2.52E-03,  avg # of iterations =  6.5

     total cpu time spent up to now is        2.5 secs

     total energy              =    -333.15694495 Ry
     estimated scf accuracy    <       0.28463248 Ry

     iteration #  4     ecut=    30.00 Ry     beta= 0.70
     Davidson diagonalization with overlap
     ethr =  6.47E-04,  avg # of iterations =  2.0

     total cpu time spent up to now is        2.8 secs

     total energy              =    -333.14792973 Ry
     estimated scf accuracy    <       0.08762382 Ry

     iteration #  5     ecut=    30.00 Ry     beta= 0.70
     Davidson diagonalization with overlap
     ethr =  1.99E-04,  avg # of iterations =  5.5

     total cpu time spent up to now is        3.2 secs

     total energy              =    -333.18373000 Ry
     estimated scf accuracy    <       0.01756296 Ry

     iteration #  6     ecut=    30.00 Ry     beta= 0.70
     Davidson diagonalization with overlap
     ethr =  3.99E-05,  avg # of iterations =  2.5

     total cpu time spent up to now is        3.5 secs

     total energy              =    -333.18264844 Ry
     estimated scf accuracy    <       0.00661728 Ry

     iteration #  7     ecut=    30.00 Ry     beta= 0.70
     Davidson diagonalization with overlap
     ethr =  1.50E-05,  avg # of iterations =  4.5

     total cpu time spent up to now is        3.8 secs

     total energy              =    -333.18435176 Ry
     estimated scf accuracy    <       0.00006426 Ry

     iteration #  8     ecut=    30.00 Ry     beta= 0.70
     Davidson diagonalization with overlap
     ethr =  1.46E-07,  avg # of iterations =  4.8

     total cpu time spent up to now is        4.2 secs

     total energy              =    -333.18436243 Ry
     estimated scf accuracy    <       0.00013144 Ry

     iteration #  9     ecut=    30.00 Ry     beta= 0.70
     Davidson diagonalization with overlap
     ethr =  1.46E-07,  avg # of iterations =  4.2

     total cpu time spent up to now is        4.5 secs

     total energy              =    -333.18436741 Ry
     estimated scf accuracy    <       0.00002557 Ry

     iteration # 10     ecut=    30.00 Ry     beta= 0.70
     Davidson diagonalization with overlap
     ethr =  5.81E-08,  avg # of iterations =  4.8

     total cpu time spent up to now is        4.9 secs

     total energy              =    -333.18437084 Ry
     estimated scf accuracy    <       0.00000220 Ry

     iteration # 11     ecut=    30.00 Ry     beta= 0.70
     Davidson diagonalization with overlap
     ethr =  4.99E-09,  avg # of iterations =  5.2

     total cpu time spent up to now is        5.2 secs

     total energy              =    -333.18437192 Ry
     estimated scf accuracy    <       0.00000035 Ry

     iteration # 12     ecut=    30.00 Ry     beta= 0.70
     Davidson diagonalization with overlap
     ethr =  7.91E-10,  avg # of iterations =  2.8

     total cpu time spent up to now is        5.5 secs

     total energy              =    -333.18437182 Ry
     estimated scf accuracy    <       0.00000036 Ry

     iteration # 13     ecut=    30.00 Ry     beta= 0.70
     Davidson diagonalization with overlap
     ethr =  7.91E-10,  avg # of iterations =  4.2

     total cpu time spent up to now is        6.0 secs

     End of self-consistent calculation

          k = 0.1250 0.1250 0.1250 (  1096 PWs)   bands (ev):

   -44.8547 -21.4540 -21.4528 -21.4528  -6.4376  -5.3795  -5.3795  -4.1280
    -4.1280  -4.1145  -3.9475  -3.9475   4.5148   7.1892   7.1892   7.9358
     9.0195   9.0195   9.7714   9.8322   9.8322   9.9566

          k = 0.1250 0.1250 0.3750 (  1107 PWs)   bands (ev):

   -44.8536 -21.5084 -21.4517 -21.4511  -6.0353  -5.2609  -5.2134  -4.1873
    -4.1231  -4.1107  -4.0447  -3.9182   3.7971   6.7178   7.2336   7.7260
     8.3184   8.6243   9.2499   9.8208   9.9768  10.7013

          k = 0.1250 0.3750 0.3750 (  1093 PWs)   bands (ev):

   -44.8524 -21.5054 -21.5046 -21.4491  -5.8245  -5.1372  -5.0697  -4.1614
    -4.1189  -4.0650  -3.9782  -3.8294   3.4402   6.6864   6.7264   7.0790
     7.3858   8.5346   9.3169   9.3573   9.8848  10.5926

          k = 0.3750 0.3750 0.3750 (  1094 PWs)   bands (ev):

   -44.8512 -21.5030 -21.5028 -21.5028  -5.4331  -5.2641  -5.2641  -4.0760
    -4.0760  -3.7885  -3.7221  -3.7221   4.0550   5.8583   5.8583   6.5829
     6.9124   6.9124   7.8383  10.5469  10.5469  10.6241

     highest occupied level (ev):    10.7013

!    total energy              =    -333.18437185 Ry
     estimated scf accuracy    <       0.00000002 Ry

     The total energy is the sum of the following terms:
     one-electron contribution =     -77.69938135 Ry
     hartree contribution      =      66.56411329 Ry
     xc contribution           =     -49.61056920 Ry
     ewald contribution        =    -272.43853459 Ry

     convergence has been achieved in  13 iterations

     Forces acting on atoms (cartesian axes, Ry/au):

     atom    1 type  2   force =     0.00000000    0.00000000    0.00000000
     atom    2 type  3   force =     0.00000000    0.00000000    0.00000000
     atom    3 type  1   force =     0.00000000    0.00000000    0.00000000
     atom    4 type  1   force =     0.00000000    0.00000000    0.00000000
     atom    5 type  1   force =     0.00000000    0.00000000    0.00000000

     Total force =     0.000000     Total SCF correction =     0.000000


     Computing stress (Cartesian axis) and pressure

          total   stress  (Ry/bohr**3)                   (kbar)     P=      -34.80
  -0.00023654   0.00000000   0.00000000          -34.80        0.00        0.00
   0.00000000  -0.00023654   0.00000000            0.00      -34.80        0.00
   0.00000000   0.00000000  -0.00023654            0.00        0.00      -34.80

     Message from routine punch:
     Nothing written, as per user request (disk_io='none')

     init_run     :      0.93s CPU      0.98s WALL (       1 calls)
     electrons    :      3.84s CPU      4.57s WALL (       1 calls)
     forces       :      0.13s CPU      0.15s WALL (       1 calls)
     stress       :      1.13s CPU      1.20s WALL (       1 calls)

     Called by init_run:
     wfcinit      :      0.05s CPU      0.05s WALL (       1 calls)
     potinit      :      0.08s CPU      0.08s WALL (       1 calls)
     hinit0       :      0.63s CPU      0.65s WALL (       1 calls)

     Called by electrons:
     c_bands      :      1.27s CPU      1.34s WALL (      13 calls)
     sum_band     :      1.42s CPU      1.73s WALL (      13 calls)
     v_of_rho     :      0.05s CPU      0.06s WALL (      14 calls)
     newd         :      1.14s CPU      1.50s WALL (      14 calls)
     mix_rho      :      0.02s CPU      0.03s WALL (      13 calls)

     Called by c_bands:
     init_us_2    :      0.04s CPU      0.04s WALL (     116 calls)
     cegterg      :      1.19s CPU      1.24s WALL (      52 calls)

     Called by *egterg:
     cdiaghg      :      0.17s CPU      0.18s WALL (     279 calls)
     h_psi        :      0.83s CPU      0.87s WALL (     283 calls)
     s_psi        :      0.04s CPU      0.04s WALL (     283 calls)
     g_psi        :      0.01s CPU      0.01s WALL (     227 calls)

     Called by h_psi:
     h_psi:calbec :      0.06s CPU      0.07s WALL (     283 calls)
     vloc_psi     :      0.72s CPU      0.76s WALL (     283 calls)
     add_vuspsi   :      0.04s CPU      0.04s WALL (     283 calls)

     General routines
     calbec       :      0.10s CPU      0.11s WALL (     403 calls)
     fft          :      0.27s CPU      0.27s WALL (      87 calls)
     ffts         :      0.04s CPU      0.04s WALL (      27 calls)
     fftw         :      0.66s CPU      0.69s WALL (    7776 calls)
     interpolate  :      0.05s CPU      0.05s WALL (      14 calls)

     Parallel routines

     PWSCF        :      6.44s CPU      7.34s WALL


   This run was terminated on:  12:11:58  21Oct2025            

=------------------------------------------------------------------------------=
   JOB DONE.
=------------------------------------------------------------------------------=
