
     Program PWSCF v.7.4.1 starts on  9Oct2025 at 13: 2:31 

     This program is part of the open-source Quantum ESPRESSO suite
     for quantum simulation of materials; please cite
         "P. Giannozzi et al., J. Phys.:Condens. Matter 21 395502 (2009);
         "P. Giannozzi et al., J. Phys.:Condens. Matter 29 465901 (2017);
         "P. Giannozzi et al., J. Chem. Phys. 152 154105 (2020);
          URL http://www.quantum-espresso.org", 
     in publications or presentations arising from this work. More details at
     http://www.quantum-espresso.org/quote

     Parallel version (MPI), running on     1 processors

     MPI processes distributed on     1 nodes
     325 MiB available memory on the printing compute node when the environment starts

     Waiting for input...
     Reading input from standard input
Warning: card &CELL ignored
Warning: card / ignored

     Current dimensions of program PWSCF are:
     Max number of different atomic species (ntypx) = 10
     Max number of k-points (npk) =  40000
     Max angular momentum in pseudopotentials (lmaxx) =  4
     Message from routine setup:
     using ibrav=0 with symmetry is DISCOURAGED, use correct ibrav instead

     Subspace diagonalization in iterative solution of the eigenvalue problem:
     a serial algorithm will be used


     G-vector sticks info
     --------------------
     sticks:   dense  smooth     PW     G-vecs:    dense   smooth      PW
     Sum         859     859    253                16889    16889    2733

     Using Slab Decomposition



     bravais-lattice index     =            0
     lattice parameter (alat)  =       7.5872  a.u.
     unit-cell volume          =     308.8323 (a.u.)^3
     number of atoms/cell      =            2
     number of atomic types    =            1
     number of electrons       =        28.00
     number of Kohn-Sham states=           14
     kinetic-energy cutoff     =      55.0000  Ry
     charge density cutoff     =     220.0000  Ry
     scf convergence threshold =      1.0E-07
     mixing beta               =       0.5000
     number of iterations used =            8  plain     mixing
     Exchange-correlation=  SLA  PZ   NOGX NOGC
                           (   1   1   0   0   0   0   0)

     celldm(1)=   7.587160  celldm(2)=   0.000000  celldm(3)=   0.000000
     celldm(4)=   0.000000  celldm(5)=   0.000000  celldm(6)=   0.000000

     crystal axes: (cart. coord. in units of alat)
               a(1) = (   0.000000   0.707107   0.707107 )  
               a(2) = (   0.707107   0.000000   0.707107 )  
               a(3) = (   0.707107   0.707107   0.000000 )  

     reciprocal axes: (cart. coord. in units 2 pi/alat)
               b(1) = ( -0.707107  0.707107  0.707107 )  
               b(2) = (  0.707107 -0.707107  0.707107 )  
               b(3) = (  0.707107  0.707107 -0.707107 )  


     PseudoPot. # 1 for Ge read from file:
     /home/bond/Software/QE/qe-7.4.1/pseudo/ge_lda_v1.4.uspp.F.UPF
     MD5 check sum: bf9d52b59cc8a669818bb2b52e0c2ba0
     Pseudo is Ultrasoft + core correction, Zval = 14.0
     Generated by new atomic code, or converted to UPF format
     Using radial grid of  873 points,  6 beta functions with: 
                l(1) =   0
                l(2) =   0
                l(3) =   1
                l(4) =   1
                l(5) =   2
                l(6) =   2
     Q(r) pseudized with  8 coefficients,  rinner =    1.400   1.400   1.400
                                                       1.400   1.400

     atomic species   valence    mass     pseudopotential
     Ge               14.00    72.63000     Ge( 1.00)

     48 Sym. Ops., with inversion, found (24 have fractional translation)



   Cartesian axes

     site n.     atom                  positions (alat units)
         1        Ge     tau(   1) = (   0.0000000   0.0000000   0.0000000  )
         2        Ge     tau(   2) = (   0.3535534   0.3535534   0.3535534  )

     number of k points=     8
                       cart. coord. in units 2pi/alat
        k(    1) = (   0.0000000   0.0000000   0.0000000), wk =   0.0312500
        k(    2) = (   0.1767767   0.1767767  -0.1767767), wk =   0.2500000
        k(    3) = (  -0.3535534  -0.3535534   0.3535534), wk =   0.1250000
        k(    4) = (   0.3535534   0.0000000   0.0000000), wk =   0.1875000
        k(    5) = (  -0.1767767  -0.5303301   0.5303301), wk =   0.7500000
        k(    6) = (   0.0000000  -0.3535534   0.3535534), wk =   0.3750000
        k(    7) = (  -0.7071068   0.0000000   0.0000000), wk =   0.0937500
        k(    8) = (  -0.7071068   0.3535534   0.0000000), wk =   0.1875000

     Dense  grid:    16889 G-vectors     FFT dimensions: (  36,  36,  36)

     Estimated max dynamical RAM per process >      68.47 MB

     Check: negative core charge=   -0.000002

     Initial potential from superposition of free atoms

     starting charge      27.9986, renormalised to      28.0000
     Starting wfcs are   18 randomized atomic wfcs

     total cpu time spent up to now is        0.8 secs

     Self-consistent Calculation

     iteration #  1     ecut=    55.00 Ry     beta= 0.50
     Davidson diagonalization with overlap
     ethr =  1.00E-02,  avg # of iterations =  1.5

     Threshold (ethr) on eigenvalues was too large:
     Diagonalizing with lowered threshold

     Davidson diagonalization with overlap
     ethr =  1.28E-04,  avg # of iterations =  2.0

     total cpu time spent up to now is        1.4 secs

     total energy              =    -426.15245036 Ry
     estimated scf accuracy    <       0.03870906 Ry

     iteration #  2     ecut=    55.00 Ry     beta= 0.50
     Davidson diagonalization with overlap
     ethr =  1.38E-04,  avg # of iterations =  1.1

     total cpu time spent up to now is        1.6 secs

     total energy              =    -426.15093867 Ry
     estimated scf accuracy    <       0.00688154 Ry

     iteration #  3     ecut=    55.00 Ry     beta= 0.50
     Davidson diagonalization with overlap
     ethr =  2.46E-05,  avg # of iterations =  2.0

     total cpu time spent up to now is        2.0 secs

     total energy              =    -426.15142502 Ry
     estimated scf accuracy    <       0.00007374 Ry

     iteration #  4     ecut=    55.00 Ry     beta= 0.50
     Davidson diagonalization with overlap
     ethr =  2.63E-07,  avg # of iterations =  3.0

     total cpu time spent up to now is        2.3 secs

     total energy              =    -426.15144365 Ry
     estimated scf accuracy    <       0.00000319 Ry

     iteration #  5     ecut=    55.00 Ry     beta= 0.50
     Davidson diagonalization with overlap
     ethr =  1.14E-08,  avg # of iterations =  3.8

     total cpu time spent up to now is        2.7 secs

     total energy              =    -426.15144467 Ry
     estimated scf accuracy    <       0.00000015 Ry

     iteration #  6     ecut=    55.00 Ry     beta= 0.50
     Davidson diagonalization with overlap
     ethr =  5.18E-10,  avg # of iterations =  3.8

     total cpu time spent up to now is        3.1 secs

     End of self-consistent calculation

          k = 0.0000 0.0000 0.0000 (  2109 PWs)   bands (ev):

   -16.8026 -16.8026 -16.8026 -16.7673 -16.7673 -16.5618 -16.5618 -16.5618
   -16.5495 -16.5495  -4.6867   7.7742   8.0585   8.0585

          k = 0.1768 0.1768-0.1768 (  2115 PWs)   bands (ev):

   -16.8203 -16.8203 -16.7942 -16.7395 -16.7395 -16.5872 -16.5872 -16.5717
   -16.5292 -16.5292  -3.9525   3.2889   7.1835   7.1835

          k =-0.3536-0.3536 0.3536 (  2120 PWs)   bands (ev):

   -16.8265 -16.8265 -16.7854 -16.7265 -16.7265 -16.5960 -16.5960 -16.5820
   -16.5225 -16.5225  -2.6238   0.4509   6.6665   6.6665

          k = 0.3536 0.0000 0.0000 (  2141 PWs)   bands (ev):

   -16.8205 -16.8205 -16.8086 -16.7341 -16.7000 -16.6467 -16.5801 -16.5370
   -16.5341 -16.5341  -3.6871   3.2635   6.0386   6.0386

          k =-0.1768-0.5303 0.5303 (  2126 PWs)   bands (ev):

   -16.8470 -16.8324 -16.7659 -16.7003 -16.6813 -16.6630 -16.6165 -16.5857
   -16.5147 -16.5007  -2.2162   0.6436   4.3427   5.6773

          k = 0.0000-0.3536 0.3536 (  2119 PWs)   bands (ev):

   -16.8423 -16.8350 -16.7598 -16.7242 -16.6976 -16.6275 -16.6085 -16.5961
   -16.5113 -16.5079  -2.8230   1.4886   4.2070   6.5668

          k =-0.7071 0.0000 0.0000 (  2100 PWs)   bands (ev):

   -16.8358 -16.8358 -16.7520 -16.7520 -16.6558 -16.6558 -16.5998 -16.5998
   -16.5089 -16.5089  -0.8459  -0.8459   5.0110   5.0110

          k =-0.7071 0.3536 0.0000 (  2148 PWs)   bands (ev):

   -16.8492 -16.8492 -16.7108 -16.7108 -16.6633 -16.6633 -16.6320 -16.6320
   -16.4970 -16.4970  -0.7511  -0.7511   4.1747   4.1747

     highest occupied level (ev):     8.0585

!    total energy              =    -426.15144471 Ry
     estimated scf accuracy    <       0.00000004 Ry

     The total energy is the sum of the following terms:
     one-electron contribution =    -280.39032952 Ry
     hartree contribution      =     165.57644273 Ry
     xc contribution           =    -114.53873088 Ry
     ewald contribution        =    -196.79882703 Ry

     convergence has been achieved in   6 iterations

     Forces acting on atoms (cartesian axes, Ry/au):

     atom    1 type  1   force =     0.00000000   -0.00000000    0.00000000
     atom    2 type  1   force =     0.00000000    0.00000000   -0.00000000

     Total force =     0.000000     Total SCF correction =     0.000000


     Computing stress (Cartesian axis) and pressure

          total   stress  (Ry/bohr**3)                   (kbar)     P=       -9.92
  -0.00006746   0.00000000   0.00000000           -9.92        0.00        0.00
   0.00000000  -0.00006746   0.00000000            0.00       -9.92        0.00
   0.00000000   0.00000000  -0.00006746            0.00        0.00       -9.92

     Message from routine punch:
     Nothing written, as per user request (disk_io='none')

     init_run     :      0.67s CPU      0.70s WALL (       1 calls)
     electrons    :      2.19s CPU      2.30s WALL (       1 calls)
     forces       :      0.06s CPU      0.08s WALL (       1 calls)
     stress       :      0.58s CPU      0.60s WALL (       1 calls)

     Called by init_run:
     wfcinit      :      0.26s CPU      0.26s WALL (       1 calls)
     potinit      :      0.02s CPU      0.02s WALL (       1 calls)
     hinit0       :      0.36s CPU      0.37s WALL (       1 calls)

     Called by electrons:
     c_bands      :      1.41s CPU      1.43s WALL (       7 calls)
     sum_band     :      0.53s CPU      0.58s WALL (       7 calls)
     v_of_rho     :      0.02s CPU      0.02s WALL (       7 calls)
     newd         :      0.26s CPU      0.32s WALL (       7 calls)
     mix_rho      :      0.01s CPU      0.01s WALL (       7 calls)

     Called by c_bands:
     init_us_2    :      0.07s CPU      0.07s WALL (     136 calls)
     cegterg      :      1.25s CPU      1.26s WALL (      56 calls)

     Called by *egterg:
     cdiaghg      :      0.03s CPU      0.03s WALL (     185 calls)
     h_psi        :      1.26s CPU      1.28s WALL (     201 calls)
     s_psi        :      0.04s CPU      0.04s WALL (     201 calls)
     g_psi        :      0.01s CPU      0.01s WALL (     137 calls)

     Called by h_psi:
     h_psi:calbec :      0.05s CPU      0.05s WALL (     201 calls)
     vloc_psi     :      1.16s CPU      1.18s WALL (     201 calls)
     add_vuspsi   :      0.04s CPU      0.04s WALL (     201 calls)

     General routines
     calbec       :      0.09s CPU      0.10s WALL (     393 calls)
     fft          :      0.20s CPU      0.20s WALL (      37 calls)
     ffts         :      0.00s CPU      0.00s WALL (       7 calls)
     fftw         :      1.15s CPU      1.16s WALL (    5034 calls)

     Parallel routines

     PWSCF        :      3.59s CPU      3.76s WALL


   This run was terminated on:  13: 2:35   9Oct2025            

=------------------------------------------------------------------------------=
   JOB DONE.
=------------------------------------------------------------------------------=
