
     Program PWSCF v.7.4.1 starts on 21Oct2025 at 17:33: 6 

     This program is part of the open-source Quantum ESPRESSO suite
     for quantum simulation of materials; please cite
         "P. Giannozzi et al., J. Phys.:Condens. Matter 21 395502 (2009);
         "P. Giannozzi et al., J. Phys.:Condens. Matter 29 465901 (2017);
         "P. Giannozzi et al., J. Chem. Phys. 152 154105 (2020);
          URL http://www.quantum-espresso.org", 
     in publications or presentations arising from this work. More details at
     http://www.quantum-espresso.org/quote

     Parallel version (MPI), running on     2 processors

     MPI processes distributed on     1 nodes
     171 MiB available memory on the printing compute node when the environment starts

     Waiting for input...
     Reading input from standard input

     Current dimensions of program PWSCF are:
     Max number of different atomic species (ntypx) = 10
     Max number of k-points (npk) =  40000
     Max angular momentum in pseudopotentials (lmaxx) =  4
     Message from routine setup:
     using ibrav=0 with symmetry is DISCOURAGED, use correct ibrav instead

     R & G space division:  proc/nbgrp/npool/nimage =       2
     Subspace diagonalization in iterative solution of the eigenvalue problem:
     a serial algorithm will be used


     Parallelization info
     --------------------
     sticks:   dense  smooth     PW     G-vecs:    dense   smooth      PW
     Min         318     156     54                 5208     1847     362
     Max         319     157     55                 5209     1848     363
     Sum         637     313    109                10417     3695     725

     Using Slab Decomposition



     bravais-lattice index     =            0
     lattice parameter (alat)  =       5.3450  a.u.
     unit-cell volume          =     107.9734 (a.u.)^3
     number of atoms/cell      =            1
     number of atomic types    =            1
     number of electrons       =        11.00
     number of Kohn-Sham states=           10
     kinetic-energy cutoff     =      40.0000  Ry
     charge density cutoff     =     320.0000  Ry
     scf convergence threshold =      1.0E-07
     mixing beta               =       0.7000
     number of iterations used =            8  plain     mixing
     energy convergence thresh.=      1.0E-04
     force convergence thresh. =      1.0E-03
     press convergence thresh. =      5.0E-01
     Exchange-correlation=  SLA  PZ   NOGX NOGC
                           (   1   1   0   0   0   0   0)
     nstep                     =           50


     celldm(1)=   5.344953  celldm(2)=   0.000000  celldm(3)=   0.000000
     celldm(4)=   0.000000  celldm(5)=   0.000000  celldm(6)=   0.000000

     crystal axes: (cart. coord. in units of alat)
               a(1) = (   0.000000   0.707107   0.707107 )  
               a(2) = (   0.707107   0.000000   0.707107 )  
               a(3) = (   0.707107   0.707107   0.000000 )  

     reciprocal axes: (cart. coord. in units 2 pi/alat)
               b(1) = ( -0.707107  0.707107  0.707107 )  
               b(2) = (  0.707107 -0.707107  0.707107 )  
               b(3) = (  0.707107  0.707107 -0.707107 )  


     PseudoPot. # 1 for Au read from file:
     /home/bond/Software/QE/qe-7.4.1/pseudo/Au.pz-d-rrkjus.UPF
     MD5 check sum: 424ffd4ac9c90487cbadcd287136c95b
     Pseudo is Ultrasoft, Zval = 11.0
     Generated by new atomic code, or converted to UPF format
     Using radial grid of 1279 points,  3 beta functions with: 
                l(1) =   2
                l(2) =   2
                l(3) =   1
     Q(r) pseudized with 0 coefficients 


     atomic species   valence    mass     pseudopotential
     Au               11.00   196.96657     Au( 1.00)

     48 Sym. Ops., with inversion, found



   Cartesian axes

     site n.     atom                  positions (alat units)
         1        Au     tau(   1) = (   0.0000000   0.0000000   0.0000000  )

     number of k points=    10  Methfessel-Paxton smearing, width (Ry)=  0.0200
                       cart. coord. in units 2pi/alat
        k(    1) = (   0.0883883   0.0883883   0.0883883), wk =   0.0625000
        k(    2) = (   0.2651650   0.2651650  -0.0883883), wk =   0.1875000
        k(    3) = (  -0.2651650  -0.2651650   0.4419417), wk =   0.1875000
        k(    4) = (  -0.0883883  -0.0883883   0.2651650), wk =   0.1875000
        k(    5) = (   0.4419417   0.0883883   0.0883883), wk =   0.1875000
        k(    6) = (  -0.0883883  -0.4419417   0.6187184), wk =   0.3750000
        k(    7) = (   0.0883883  -0.2651650   0.4419417), wk =   0.3750000
        k(    8) = (  -0.6187184   0.0883883   0.0883883), wk =   0.1875000
        k(    9) = (   0.2651650   0.2651650   0.2651650), wk =   0.0625000
        k(   10) = (  -0.2651650  -0.2651650   0.7954951), wk =   0.1875000

     Dense  grid:    10417 G-vectors     FFT dimensions: (  32,  32,  32)

     Smooth grid:     3695 G-vectors     FFT dimensions: (  24,  24,  24)

     Estimated max dynamical RAM per process >      14.13 MB

     Estimated total dynamical RAM >      28.27 MB

     Initial potential from superposition of free atoms

     starting charge      10.9999, renormalised to      11.0000
     Starting wfcs are    9 randomized atomic wfcs +    1 random wfcs

     total cpu time spent up to now is        1.7 secs

     Self-consistent Calculation

     iteration #  1     ecut=    40.00 Ry     beta= 0.70
     Davidson diagonalization with overlap
     ethr =  1.00E-02,  avg # of iterations =  5.2

     Threshold (ethr) on eigenvalues was too large:
     Diagonalizing with lowered threshold

     Davidson diagonalization with overlap
     ethr =  6.88E-04,  avg # of iterations =  1.0

     total cpu time spent up to now is        2.1 secs

     total energy              =     -66.83946423 Ry
     estimated scf accuracy    <       0.07666931 Ry

     iteration #  2     ecut=    40.00 Ry     beta= 0.70
     Davidson diagonalization with overlap
     ethr =  6.97E-04,  avg # of iterations =  2.0

     total cpu time spent up to now is        2.3 secs

     total energy              =     -66.86258519 Ry
     estimated scf accuracy    <       0.02640812 Ry

     iteration #  3     ecut=    40.00 Ry     beta= 0.70
     Davidson diagonalization with overlap
     ethr =  2.40E-04,  avg # of iterations =  1.7

     total cpu time spent up to now is        2.4 secs

     total energy              =     -66.86750661 Ry
     estimated scf accuracy    <       0.00002914 Ry

     iteration #  4     ecut=    40.00 Ry     beta= 0.70
     Davidson diagonalization with overlap
     ethr =  2.65E-07,  avg # of iterations =  3.2

     total cpu time spent up to now is        2.6 secs

     total energy              =     -66.86752836 Ry
     estimated scf accuracy    <       0.00000472 Ry

     iteration #  5     ecut=    40.00 Ry     beta= 0.70
     Davidson diagonalization with overlap
     ethr =  4.29E-08,  avg # of iterations =  1.0

     total cpu time spent up to now is        2.7 secs

     End of self-consistent calculation

          k = 0.0884 0.0884 0.0884 (   471 PWs)   bands (ev):

     6.9700  11.8664  12.2216  12.2216  13.6697  13.6697  33.5481  34.5157
    37.8124  37.8124

          k = 0.2652 0.2652-0.0884 (   463 PWs)   bands (ev):

     9.2011  11.6552  12.2280  12.5945  13.6127  15.1153  27.2802  32.2320
    35.4840  39.1616

          k =-0.2652-0.2652 0.4419 (   459 PWs)   bands (ev):

     9.5374  11.7263  12.3577  13.2980  15.1177  17.3615  20.9465  32.4241
    34.1096  34.1284

          k =-0.0884-0.0884 0.2652 (   470 PWs)   bands (ev):

     8.3170  11.3387  12.4698  12.6991  13.4696  14.1932  30.8109  34.7630
    34.9792  37.3756

          k = 0.4419 0.0884 0.0884 (   456 PWs)   bands (ev):

     9.7905  10.5869  12.5452  13.6089  14.8939  15.0905  27.6854  31.2352
    31.4822  35.1661

          k =-0.0884-0.4419 0.6187 (   459 PWs)   bands (ev):

    10.4081  10.8968  12.2286  13.8071  15.1428  20.3893  22.4510  26.2250
    28.7257  37.8424

          k = 0.0884-0.2652 0.4419 (   461 PWs)   bands (ev):

    10.2343  11.4688  11.6974  13.1898  14.5311  16.9885  24.3942  29.5925
    32.2649  37.0087

          k =-0.6187 0.0884 0.0884 (   460 PWs)   bands (ev):

     9.6790  10.0619  14.0691  14.5487  15.2988  18.2249  23.9797  26.9604
    28.7525  35.5020

          k = 0.2652 0.2652 0.2652 (   465 PWs)   bands (ev):

     9.0787  12.1174  12.1174  13.5722  14.6854  14.6854  23.6398  33.1654
    36.4488  36.4488

          k =-0.2652-0.2652 0.7955 (   456 PWs)   bands (ev):

    10.3705  11.3616  12.2782  13.1501  14.6294  19.0818  22.1650  27.4280
    33.1816  34.7671

     the Fermi energy is    17.1107 ev

!    total energy              =     -66.86752869 Ry
     estimated scf accuracy    <       0.00000009 Ry
     smearing contrib. (-TS)   =      -0.00035803 Ry
     internal energy E=F+TS    =     -66.86717066 Ry

     The total energy is F=E-TS. E is the sum of the following terms:
     one-electron contribution =      10.17526532 Ry
     hartree contribution      =       6.84869931 Ry
     xc contribution           =     -10.49844842 Ry
     ewald contribution        =     -73.39268687 Ry

     convergence has been achieved in   5 iterations


     Computing stress (Cartesian axis) and pressure

          total   stress  (Ry/bohr**3)                   (kbar)     P=       96.02
   0.00065274  -0.00000000  -0.00000000           96.02       -0.00       -0.00
  -0.00000000   0.00065274  -0.00000000           -0.00       96.02       -0.00
  -0.00000000  -0.00000000   0.00065274           -0.00       -0.00       96.02


     BFGS Geometry Optimization
     Energy error            =      3.4E-03 Ry
     Gradient error          =      0.0E+00 Ry/Bohr
     Cell gradient error     =      9.6E+01 kbar

     number of scf cycles    =   1
     number of bfgs steps    =   0

     enthalpy           new  =     -66.8675286891 Ry

     new trust radius        =       0.0339131698 bohr
     new conv_thr            =       0.0000001000 Ry

     new unit-cell volume =    113.34597 a.u.^3 (    16.79614 Ang^3 )
     density =     19.47297 g/cm^3

CELL_PARAMETERS (angstrom)
  -0.000000000   2.032636990   2.032636990
   2.032636990  -0.000000000   2.032636990
   2.032636990   2.032636990  -0.000000000

ATOMIC_POSITIONS (angstrom)
Au               0.0000000000        0.0000000000        0.0000000000    0   0   0


     Message from routine punch:
     Nothing written, as per user request (disk_io='none')
     NEW-OLD atomic charge density approx. for the potential
     New effective cutoffs (rho, wfc):  307.71   38.66

     total cpu time spent up to now is        2.9 secs

     Self-consistent Calculation

     iteration #  1     ecut=    40.00 Ry     beta= 0.70
     Davidson diagonalization with overlap
     ethr =  1.00E-06,  avg # of iterations =  3.8

     Threshold (ethr) on eigenvalues was too large:
     Diagonalizing with lowered threshold

     Davidson diagonalization with overlap
     ethr =  9.06E-09,  avg # of iterations =  1.3

     total cpu time spent up to now is        3.3 secs

     total energy              =     -66.86918890 Ry
     estimated scf accuracy    <       0.00000099 Ry

     iteration #  2     ecut=    40.00 Ry     beta= 0.70
     Davidson diagonalization with overlap
     ethr =  8.98E-09,  avg # of iterations =  1.0

     total cpu time spent up to now is        3.5 secs

     total energy              =     -66.86918899 Ry
     estimated scf accuracy    <       0.00000014 Ry

     iteration #  3     ecut=    40.00 Ry     beta= 0.70
     Davidson diagonalization with overlap
     ethr =  1.24E-09,  avg # of iterations =  1.9

     total cpu time spent up to now is        3.8 secs

     End of self-consistent calculation

          k = 0.0870 0.0870 0.0870 (   471 PWs)   bands (ev):

     6.3170  11.0013  11.3269  11.3269  12.6583  12.6583  32.0580  33.1463
    36.1627  36.1627

          k = 0.2609 0.2609-0.0870 (   463 PWs)   bands (ev):

     8.4713  10.8124  11.3422  11.6736  12.6111  13.9978  25.7731  30.6357
    34.0173  37.2749

          k =-0.2609-0.2609 0.4348 (   459 PWs)   bands (ev):

     8.8212  10.8773  11.4559  12.3573  13.9879  16.2212  19.5506  30.9621
    32.4807  32.5646

          k =-0.0870-0.0870 0.2609 (   470 PWs)   bands (ev):

     7.6118  10.5165  11.5598  11.7690  12.4816  13.1396  29.2534  33.2902
    33.3116  35.7517

          k = 0.4348 0.0870 0.0870 (   456 PWs)   bands (ev):

     9.0566   9.8210  11.6370  12.6086  13.7824  14.0022  26.1778  29.6835
    29.8613  33.5283

          k =-0.0870-0.4348 0.6088 (   459 PWs)   bands (ev):

     9.6579  10.1133  11.3470  12.7950  14.0132  19.0514  21.1210  24.7390
    27.2246  36.1695

          k = 0.0870-0.2609 0.4348 (   461 PWs)   bands (ev):

     9.4759  10.6474  10.8496  12.2265  13.4569  15.7818  22.9648  28.0304
    30.7047  35.3932

          k =-0.6088 0.0870 0.0870 (   460 PWs)   bands (ev):

     8.9774   9.3336  13.0571  13.4695  14.1539  17.0399  22.5164  25.5161
    27.3254  33.8120

          k = 0.2609 0.2609 0.2609 (   465 PWs)   bands (ev):

     8.3775  11.2330  11.2330  12.6484  13.5935  13.5935  22.1935  31.8852
    34.7120  34.7120

          k =-0.2609-0.2609 0.7827 (   456 PWs)   bands (ev):

     9.6100  10.5487  11.3994  12.1884  13.5432  17.8120  20.7875  25.9124
    31.5362  33.2491

     the Fermi energy is    15.9085 ev

!    total energy              =     -66.86918900 Ry
     estimated scf accuracy    <       0.00000003 Ry
     smearing contrib. (-TS)   =      -0.00025083 Ry
     internal energy E=F+TS    =     -66.86893817 Ry

     The total energy is F=E-TS. E is the sum of the following terms:
     one-electron contribution =       8.52786092 Ry
     hartree contribution      =       7.27311522 Ry
     xc contribution           =     -10.45565544 Ry
     ewald contribution        =     -72.21425887 Ry

     convergence has been achieved in   3 iterations


     Computing stress (Cartesian axis) and pressure

          total   stress  (Ry/bohr**3)                   (kbar)     P=       -4.05
  -0.00002753  -0.00000000  -0.00000000           -4.05       -0.00       -0.00
  -0.00000000  -0.00002753  -0.00000000           -0.00       -4.05       -0.00
  -0.00000000  -0.00000000  -0.00002753           -0.00       -0.00       -4.05

     Energy error            =      1.7E-03 Ry
     Gradient error          =      0.0E+00 Ry/Bohr
     Cell gradient error     =      4.0E+00 kbar

     number of scf cycles    =   2
     number of bfgs steps    =   1

     enthalpy           old  =     -66.8675286891 Ry
     enthalpy           new  =     -66.8691890007 Ry

     CASE: enthalpy          _new < enthalpy          _old

     new trust radius        =       0.0014271003 bohr
     new conv_thr            =       0.0000000010 Ry

     new unit-cell volume =    113.11822 a.u.^3 (    16.76239 Ang^3 )
     density =     19.51217 g/cm^3

CELL_PARAMETERS (angstrom)
  -0.000000000   2.031274663   2.031274663
   2.031274663  -0.000000000   2.031274663
   2.031274663   2.031274663  -0.000000000

ATOMIC_POSITIONS (angstrom)
Au               0.0000000000        0.0000000000        0.0000000000    0   0   0


     Message from routine punch:
     Nothing written, as per user request (disk_io='none')
     NEW-OLD atomic charge density approx. for the potential
     New effective cutoffs (rho, wfc):  308.12   38.71

     total cpu time spent up to now is        4.1 secs

     Self-consistent Calculation

     iteration #  1     ecut=    40.00 Ry     beta= 0.70
     Davidson diagonalization with overlap
     ethr =  1.00E-06,  avg # of iterations =  2.0

     Threshold (ethr) on eigenvalues was too large:
     Diagonalizing with lowered threshold

     Davidson diagonalization with overlap
     ethr =  4.90E-10,  avg # of iterations =  1.2

     total cpu time spent up to now is        4.6 secs

     total energy              =     -66.86919039 Ry
     estimated scf accuracy    <       0.00000005 Ry

     iteration #  2     ecut=    40.00 Ry     beta= 0.70
     Davidson diagonalization with overlap
     ethr =  4.39E-10,  avg # of iterations =  2.0

     total cpu time spent up to now is        4.9 secs

     total energy              =     -66.86919041 Ry
     estimated scf accuracy    <       0.00000002 Ry

     iteration #  3     ecut=    40.00 Ry     beta= 0.70
     Davidson diagonalization with overlap
     ethr =  1.66E-10,  avg # of iterations =  1.6

     total cpu time spent up to now is        5.1 secs

     End of self-consistent calculation

          k = 0.0870 0.0870 0.0870 (   471 PWs)   bands (ev):

     6.3434  11.0361  11.3628  11.3628  12.6988  12.6988  32.1189  33.2019
    36.2300  36.2300

          k = 0.2611 0.2611-0.0870 (   463 PWs)   bands (ev):

     8.5008  10.8463  11.3778  11.7105  12.6512  14.0425  25.8341  30.7005
    34.0768  37.3514

          k =-0.2611-0.2611 0.4351 (   459 PWs)   bands (ev):

     8.8500  10.9114  11.4921  12.3952  14.0330  16.2671  19.6067  31.0221
    32.5476  32.6267

          k =-0.0870-0.0870 0.2611 (   470 PWs)   bands (ev):

     7.6402  10.5495  11.5963  11.8063  12.5212  13.1818  29.3166  33.3587
    33.3706  35.8180

          k = 0.4351 0.0870 0.0870 (   456 PWs)   bands (ev):

     9.0862   9.8518  11.6735  12.6487  13.8268  14.0458  26.2388  29.7463
    29.9269  33.5945

          k =-0.0870-0.4351 0.6092 (   459 PWs)   bands (ev):

     9.6881  10.1448  11.3825  12.8356  14.0584  19.1053  21.1747  24.7989
    27.2852  36.2374

          k = 0.0870-0.2611 0.4351 (   461 PWs)   bands (ev):

     9.5065  10.6805  10.8837  12.2651  13.4999  15.8302  23.0225  28.0935
    30.7680  35.4587

          k =-0.6092 0.0870 0.0870 (   460 PWs)   bands (ev):

     9.0057   9.3629  13.0977  13.5127  14.1996  17.0876  22.5756  25.5743
    27.3833  33.8804

          k = 0.2611 0.2611 0.2611 (   465 PWs)   bands (ev):

     8.4057  11.2685  11.2685  12.6857  13.6372  13.6372  22.2518  31.9373
    34.7825  34.7825

          k =-0.2611-0.2611 0.7832 (   456 PWs)   bands (ev):

     9.6406  10.5815  11.4347  12.2270  13.5867  17.8632  20.8429  25.9735
    31.6028  33.3108

     the Fermi energy is    15.9568 ev

!    total energy              =     -66.86919041 Ry
     estimated scf accuracy    <          5.4E-11 Ry
     smearing contrib. (-TS)   =      -0.00025243 Ry
     internal energy E=F+TS    =     -66.86893799 Ry

     The total energy is F=E-TS. E is the sum of the following terms:
     one-electron contribution =       8.59545716 Ry
     hartree contribution      =       7.25576148 Ry
     xc contribution           =     -10.45746541 Ry
     ewald contribution        =     -72.26269122 Ry

     convergence has been achieved in   3 iterations


     Computing stress (Cartesian axis) and pressure

          total   stress  (Ry/bohr**3)                   (kbar)     P=        0.93
   0.00000631   0.00000000   0.00000000            0.93        0.00        0.00
   0.00000000   0.00000631   0.00000000            0.00        0.93        0.00
   0.00000000   0.00000000   0.00000631            0.00        0.00        0.93

     Energy error            =      1.4E-06 Ry
     Gradient error          =      0.0E+00 Ry/Bohr
     Cell gradient error     =      9.3E-01 kbar

     number of scf cycles    =   3
     number of bfgs steps    =   2

     enthalpy           old  =     -66.8691890007 Ry
     enthalpy           new  =     -66.8691904125 Ry

     CASE: enthalpy          _new < enthalpy          _old

     new trust radius        =       0.0002658556 bohr
     new conv_thr            =       0.0000000010 Ry

     new unit-cell volume =    113.16064 a.u.^3 (    16.76868 Ang^3 )
     density =     19.50486 g/cm^3

CELL_PARAMETERS (angstrom)
  -0.000000000   2.031528537   2.031528537
   2.031528537  -0.000000000   2.031528537
   2.031528537   2.031528537  -0.000000000

ATOMIC_POSITIONS (angstrom)
Au               0.0000000000        0.0000000000        0.0000000000    0   0   0


     Message from routine punch:
     Nothing written, as per user request (disk_io='none')
     NEW-OLD atomic charge density approx. for the potential
     New effective cutoffs (rho, wfc):  308.04   38.70

     total cpu time spent up to now is        5.4 secs

     Self-consistent Calculation

     iteration #  1     ecut=    40.00 Ry     beta= 0.70
     Davidson diagonalization with overlap
     ethr =  1.00E-06,  avg # of iterations =  2.0

     Threshold (ethr) on eigenvalues was too large:
     Diagonalizing with lowered threshold

     Davidson diagonalization with overlap
     ethr =  6.95E-13,  avg # of iterations =  2.2

     total cpu time spent up to now is        6.3 secs

     End of self-consistent calculation

          k = 0.0870 0.0870 0.0870 (   471 PWs)   bands (ev):

     6.3385  11.0295  11.3560  11.3560  12.6912  12.6912  32.1076  33.1916
    36.2174  36.2174

          k = 0.2610 0.2610-0.0870 (   463 PWs)   bands (ev):

     8.4953  10.8399  11.3711  11.7036  12.6437  14.0341  25.8227  30.6884
    34.0657  37.3371

          k =-0.2610-0.2610 0.4351 (   459 PWs)   bands (ev):

     8.8446  10.9050  11.4853  12.3880  14.0245  16.2585  19.5961  31.0109
    32.5351  32.6151

          k =-0.0870-0.0870 0.2610 (   470 PWs)   bands (ev):

     7.6349  10.5433  11.5894  11.7993  12.5138  13.1738  29.3048  33.3459
    33.3596  35.8057

          k = 0.4351 0.0870 0.0870 (   456 PWs)   bands (ev):

     9.0807   9.8460  11.6666  12.6411  13.8184  14.0376  26.2274  29.7346
    29.9147  33.5822

          k =-0.0870-0.4351 0.6091 (   459 PWs)   bands (ev):

     9.6824  10.1389  11.3758  12.8279  14.0498  19.0952  21.1646  24.7877
    27.2739  36.2247

          k = 0.0870-0.2610 0.4351 (   461 PWs)   bands (ev):

     9.5007  10.6743  10.8773  12.2578  13.4918  15.8211  23.0117  28.0817
    30.7562  35.4465

          k =-0.6091 0.0870 0.0870 (   460 PWs)   bands (ev):

     9.0003   9.3574  13.0901  13.5046  14.1910  17.0786  22.5645  25.5634
    27.3725  33.8676

          k = 0.2610 0.2610 0.2610 (   465 PWs)   bands (ev):

     8.4004  11.2618  11.2618  12.6787  13.6290  13.6290  22.2409  31.9276
    34.7693  34.7693

          k =-0.2610-0.2610 0.7831 (   456 PWs)   bands (ev):

     9.6348  10.5753  11.4281  12.2197  13.5785  17.8536  20.8325  25.9621
    31.5904  33.2993

     the Fermi energy is    15.9478 ev

!    total energy              =     -66.86919058 Ry
     estimated scf accuracy    <          6.2E-11 Ry
     smearing contrib. (-TS)   =      -0.00025209 Ry
     internal energy E=F+TS    =     -66.86893849 Ry

     The total energy is F=E-TS. E is the sum of the following terms:
     one-electron contribution =       8.58278968 Ry
     hartree contribution      =       7.25907972 Ry
     xc contribution           =     -10.45714712 Ry
     ewald contribution        =     -72.25366077 Ry

     convergence has been achieved in   1 iterations


     Computing stress (Cartesian axis) and pressure

          total   stress  (Ry/bohr**3)                   (kbar)     P=        0.24
   0.00000166   0.00000000  -0.00000000            0.24        0.00       -0.00
   0.00000000   0.00000166  -0.00000000            0.00        0.24       -0.00
  -0.00000000  -0.00000000   0.00000166           -0.00       -0.00        0.24

     Energy error            =      1.7E-07 Ry
     Gradient error          =      0.0E+00 Ry/Bohr
     Cell gradient error     =      2.4E-01 kbar

     bfgs converged in   4 scf cycles and   3 bfgs steps
     (criteria: energy <  1.0E-04 Ry, force <  1.0E-03 Ry/Bohr, cell <  5.0E-01 kbar)

     End of BFGS Geometry Optimization

     Final enthalpy           =     -66.8691905850 Ry

     File /home/bond/Work/Lab4/Problem3/Au_nk_4/pwscf.bfgs deleted, as requested
Begin final coordinates
     new unit-cell volume =    113.16064 a.u.^3 (    16.76868 Ang^3 )
     density =     19.50486 g/cm^3

CELL_PARAMETERS (angstrom)
  -0.000000000   2.031528537   2.031528537
   2.031528537  -0.000000000   2.031528537
   2.031528537   2.031528537  -0.000000000

ATOMIC_POSITIONS (angstrom)
Au               0.0000000000        0.0000000000        0.0000000000    0   0   0
End final coordinates


     Message from routine punch:
     Nothing written, as per user request (disk_io='none')

     Final scf calculation at the relaxed structure.
     The G-vectors are recalculated for the final unit cell
     Results may differ from those at the preceding step.

     Parallelization info
     --------------------
     sticks:   dense  smooth     PW     G-vecs:    dense   smooth      PW
     Min         324     156     54                 5483     1917     373
     Max         325     157     55                 5486     1922     376
     Sum         649     313    109                10969     3839     749

     Using Slab Decomposition



     bravais-lattice index     =            0
     lattice parameter (alat)  =       5.3450  a.u.
     unit-cell volume          =     113.1606 (a.u.)^3
     number of atoms/cell      =            1
     number of atomic types    =            1
     number of electrons       =        11.00
     number of Kohn-Sham states=           10
     kinetic-energy cutoff     =      40.0000  Ry
     charge density cutoff     =     320.0000  Ry
     scf convergence threshold =      1.0E-09
     mixing beta               =       0.7000
     number of iterations used =            8  plain     mixing
     press convergence thresh. =      5.0E-01
     Exchange-correlation=  SLA  PZ   NOGX NOGC
                           (   1   1   0   0   0   0   0)

     celldm(1)=   5.344953  celldm(2)=   0.000000  celldm(3)=   0.000000
     celldm(4)=   0.000000  celldm(5)=   0.000000  celldm(6)=   0.000000

     crystal axes: (cart. coord. in units of alat)
               a(1) = (  -0.000000   0.718254   0.718254 )  
               a(2) = (   0.718254  -0.000000   0.718254 )  
               a(3) = (   0.718254   0.718254  -0.000000 )  

     reciprocal axes: (cart. coord. in units 2 pi/alat)
               b(1) = ( -0.696133  0.696133  0.696133 )  
               b(2) = (  0.696133 -0.696133  0.696133 )  
               b(3) = (  0.696133  0.696133 -0.696133 )  


     PseudoPot. # 1 for Au read from file:
     /home/bond/Software/QE/qe-7.4.1/pseudo/Au.pz-d-rrkjus.UPF
     MD5 check sum: 424ffd4ac9c90487cbadcd287136c95b
     Pseudo is Ultrasoft, Zval = 11.0
     Generated by new atomic code, or converted to UPF format
     Using radial grid of 1279 points,  3 beta functions with: 
                l(1) =   2
                l(2) =   2
                l(3) =   1
     Q(r) pseudized with 0 coefficients 


     atomic species   valence    mass     pseudopotential
     Au               11.00   196.96657     Au( 1.00)

     48 Sym. Ops., with inversion, found



   Cartesian axes

     site n.     atom                  positions (alat units)
         1        Au     tau(   1) = (   0.0000000   0.0000000   0.0000000  )

     number of k points=    10  Methfessel-Paxton smearing, width (Ry)=  0.0200
                       cart. coord. in units 2pi/alat
        k(    1) = (   0.0870166   0.0870166   0.0870166), wk =   0.0625000
        k(    2) = (   0.2610498   0.2610498  -0.0870166), wk =   0.1875000
        k(    3) = (  -0.2610498  -0.2610498   0.4350830), wk =   0.1875000
        k(    4) = (  -0.0870166  -0.0870166   0.2610498), wk =   0.1875000
        k(    5) = (   0.4350830   0.0870166   0.0870166), wk =   0.1875000
        k(    6) = (  -0.0870166  -0.4350830   0.6091162), wk =   0.3750000
        k(    7) = (   0.0870166  -0.2610498   0.4350830), wk =   0.3750000
        k(    8) = (  -0.6091162   0.0870166   0.0870166), wk =   0.1875000
        k(    9) = (   0.2610498   0.2610498   0.2610498), wk =   0.0625000
        k(   10) = (  -0.2610498  -0.2610498   0.7831494), wk =   0.1875000

     Dense  grid:    10969 G-vectors     FFT dimensions: (  32,  32,  32)

     Smooth grid:     3839 G-vectors     FFT dimensions: (  24,  24,  24)

     Estimated max dynamical RAM per process >      14.81 MB

     Estimated total dynamical RAM >      29.63 MB

     Initial potential from superposition of free atoms

     starting charge      10.9999, renormalised to      11.0000
     Starting wfcs are    9 randomized atomic wfcs +    1 random wfcs

     total cpu time spent up to now is        6.9 secs

     Self-consistent Calculation

     iteration #  1     ecut=    40.00 Ry     beta= 0.70
     Davidson diagonalization with overlap
     ethr =  1.00E-06,  avg # of iterations = 12.1

     total cpu time spent up to now is        7.2 secs

     total energy              =     -66.84013912 Ry
     estimated scf accuracy    <       0.07779941 Ry

     iteration #  2     ecut=    40.00 Ry     beta= 0.70
     Davidson diagonalization with overlap
     ethr =  7.07E-04,  avg # of iterations =  2.0

     total cpu time spent up to now is        7.4 secs

     total energy              =     -66.86380332 Ry
     estimated scf accuracy    <       0.02908621 Ry

     iteration #  3     ecut=    40.00 Ry     beta= 0.70
     Davidson diagonalization with overlap
     ethr =  2.64E-04,  avg # of iterations =  1.7

     total cpu time spent up to now is        7.6 secs

     total energy              =     -66.86920450 Ry
     estimated scf accuracy    <       0.00003255 Ry

     iteration #  4     ecut=    40.00 Ry     beta= 0.70
     Davidson diagonalization with overlap
     ethr =  2.96E-07,  avg # of iterations =  2.4

     total cpu time spent up to now is        7.7 secs

     total energy              =     -66.86922999 Ry
     estimated scf accuracy    <       0.00000553 Ry

     iteration #  5     ecut=    40.00 Ry     beta= 0.70
     Davidson diagonalization with overlap
     ethr =  5.03E-08,  avg # of iterations =  1.0

     total cpu time spent up to now is        7.9 secs

     total energy              =     -66.86923037 Ry
     estimated scf accuracy    <       0.00000014 Ry

     iteration #  6     ecut=    40.00 Ry     beta= 0.70
     Davidson diagonalization with overlap
     ethr =  1.25E-09,  avg # of iterations =  2.0

     total cpu time spent up to now is        8.1 secs

     total energy              =     -66.86923040 Ry
     estimated scf accuracy    <          2.2E-09 Ry

     iteration #  7     ecut=    40.00 Ry     beta= 0.70
     Davidson diagonalization with overlap
     ethr =  1.98E-11,  avg # of iterations =  1.8

     total cpu time spent up to now is        8.3 secs

     End of self-consistent calculation

          k = 0.0870 0.0870 0.0870 (   495 PWs)   bands (ev):

     6.3386  11.0293  11.3558  11.3558  12.6910  12.6910  32.1075  33.1915
    36.2173  36.2173

          k = 0.2610 0.2610-0.0870 (   489 PWs)   bands (ev):

     8.4953  10.8398  11.3708  11.7033  12.6434  14.0338  25.8226  30.6883
    34.0656  37.3370

          k =-0.2610-0.2610 0.4351 (   479 PWs)   bands (ev):

     8.8445  10.9048  11.4850  12.3879  14.0243  16.2584  19.5961  31.0109
    32.5351  32.6151

          k =-0.0870-0.0870 0.2610 (   489 PWs)   bands (ev):

     7.6350  10.5431  11.5892  11.7991  12.5135  13.1736  29.3047  33.3459
    33.3596  35.8055

          k = 0.4351 0.0870 0.0870 (   485 PWs)   bands (ev):

     9.0805   9.8458  11.6664  12.6409  13.8182  14.0374  26.2274  29.7346
    29.9145  33.5819

          k =-0.0870-0.4351 0.6091 (   483 PWs)   bands (ev):

     9.6822  10.1387  11.3756  12.8276  14.0496  19.0951  21.1646  24.7876
    27.2738  36.2246

          k = 0.0870-0.2610 0.4351 (   482 PWs)   bands (ev):

     9.5006  10.6741  10.8771  12.2576  13.4915  15.8210  23.0117  28.0817
    30.7561  35.4464

          k =-0.6091 0.0870 0.0870 (   476 PWs)   bands (ev):

     9.0002   9.3572  13.0899  13.5043  14.1908  17.0786  22.5645  25.5634
    27.3725  33.8674

          k = 0.2610 0.2610 0.2610 (   486 PWs)   bands (ev):

     8.4003  11.2616  11.2616  12.6786  13.6287  13.6287  22.2408  31.9276
    34.7694  34.7694

          k =-0.2610-0.2610 0.7831 (   481 PWs)   bands (ev):

     9.6347  10.5751  11.4279  12.2194  13.5782  17.8535  20.8324  25.9621
    31.5903  33.2992

     the Fermi energy is    15.9476 ev

!    total energy              =     -66.86923040 Ry
     estimated scf accuracy    <          4.9E-12 Ry
     smearing contrib. (-TS)   =      -0.00025205 Ry
     internal energy E=F+TS    =     -66.86897835 Ry

     The total energy is F=E-TS. E is the sum of the following terms:
     one-electron contribution =       8.58283179 Ry
     hartree contribution      =       7.25894397 Ry
     xc contribution           =     -10.45709334 Ry
     ewald contribution        =     -72.25366077 Ry

     convergence has been achieved in   7 iterations


     Computing stress (Cartesian axis) and pressure

          total   stress  (Ry/bohr**3)                   (kbar)     P=        0.00
   0.00000003   0.00000000   0.00000000            0.00        0.00        0.00
   0.00000000   0.00000003   0.00000000            0.00        0.00        0.00
   0.00000000   0.00000000   0.00000003            0.00        0.00        0.00

     Message from routine punch:
     Nothing written, as per user request (disk_io='none')

     init_run     :      1.15s CPU      1.48s WALL (       2 calls)
     electrons    :      4.14s CPU      5.16s WALL (       5 calls)
     update_pot   :      0.01s CPU      0.01s WALL (       3 calls)
     stress       :      1.15s CPU      1.46s WALL (       5 calls)

     Called by init_run:
     wfcinit      :      0.07s CPU      0.08s WALL (       2 calls)
     potinit      :      0.21s CPU      0.23s WALL (       2 calls)
     hinit0       :      0.77s CPU      0.96s WALL (       2 calls)

     Called by electrons:
     c_bands      :      2.70s CPU      3.32s WALL (      23 calls)
     sum_band     :      0.99s CPU      1.29s WALL (      23 calls)
     v_of_rho     :      0.05s CPU      0.05s WALL (      24 calls)
     newd         :      0.46s CPU      0.54s WALL (      24 calls)
     mix_rho      :      0.02s CPU      0.02s WALL (      23 calls)

     Called by c_bands:
     init_us_2    :      0.05s CPU      0.06s WALL (     530 calls)
     cegterg      :      2.60s CPU      3.19s WALL (     230 calls)

     Called by *egterg:
     cdiaghg      :      0.14s CPU      0.17s WALL (     721 calls)
     h_psi        :      2.29s CPU      2.79s WALL (     811 calls)
     s_psi        :      0.02s CPU      0.02s WALL (     811 calls)
     g_psi        :      0.01s CPU      0.01s WALL (     561 calls)

     Called by h_psi:
     h_psi:calbec :      0.07s CPU      0.08s WALL (     811 calls)
     vloc_psi     :      2.19s CPU      2.67s WALL (     811 calls)
     add_vuspsi   :      0.02s CPU      0.02s WALL (     811 calls)

     General routines
     calbec       :      0.13s CPU      0.17s WALL (    1691 calls)
     fft          :      0.21s CPU      0.23s WALL (     151 calls)
     ffts         :      0.16s CPU      0.18s WALL (      47 calls)
     fftw         :      2.31s CPU      2.89s WALL (   14826 calls)
     interpolate  :      0.17s CPU      0.19s WALL (      24 calls)

     Parallel routines

     PWSCF        :      6.70s CPU      8.55s WALL


   This run was terminated on:  17:33:14  21Oct2025            

=------------------------------------------------------------------------------=
   JOB DONE.
=------------------------------------------------------------------------------=
