LAMMPS (22 Jul 2025 - Update 1)
Reading data file ...
  orthogonal box = (0 0 0) to (8.6584976 7.4984789 22.713089)
  1 by 1 by 1 MPI processor grid
  reading atoms ...
  27 atoms
  read_data CPU = 0.001 seconds
Reading eam/alloy potential file /home/bond/Software/LAMMPS/lammps-22Jul2025/potentials/Al_zhou.eam.alloy with DATE: 2007-10-12
WARNING: No fixes with time integration, atoms won't move
For more information see https://docs.lammps.org/err0028 (../verlet.cpp:60)
Neighbor list info ...
  update: every = 1 steps, delay = 0 steps, check = yes
  max neighbors/atom: 2000, page size: 100000
  master list distance cutoff = 12.1025
  ghost atom cutoff = 12.1025
  binsize = 6.05125, bins = 2 2 4
  1 neighbor lists, perpetual/occasional/extra = 1 0 0
  (1) pair eam/alloy, perpetual
      attributes: half, newton on
      pair build: half/bin/atomonly/newton
      stencil: half/bin/3d
      bin: standard
Setting up Verlet run ...
  Unit style    : metal
  Current step  : 0
  Time step     : 0.001
Per MPI rank memory allocation (min/avg/max) = 3.319 | 3.319 | 3.319 Mbytes
   Step         PotEng           Lx             Ly             Lz           Press           Pxx            Pyy            Pzz      
         0  -88.330963      8.6584976      7.4984789      22.713089     -6144.8571     -13857.027     -1771.618      -2805.9265    
Loop time of 1.74e-06 on 1 procs for 0 steps with 27 atoms

114.9% CPU use with 1 MPI tasks x no OpenMP threads

MPI task timing breakdown:
Section |  min time  |  avg time  |  max time  |%varavg| %total
---------------------------------------------------------------
Pair    | 0          | 0          | 0          |   0.0 |  0.00
Neigh   | 0          | 0          | 0          |   0.0 |  0.00
Comm    | 0          | 0          | 0          |   0.0 |  0.00
Output  | 0          | 0          | 0          |   0.0 |  0.00
Modify  | 0          | 0          | 0          |   0.0 |  0.00
Other   |            | 1.74e-06   |            |       |100.00

Nlocal:             27 ave          27 max          27 min
Histogram: 1 0 0 0 0 0 0 0 0 0
Nghost:            412 ave         412 max         412 min
Histogram: 1 0 0 0 0 0 0 0 0 0
Neighs:           2442 ave        2442 max        2442 min
Histogram: 1 0 0 0 0 0 0 0 0 0

Total # of neighbors = 2442
Ave neighs/atom = 90.444444
Neighbor list builds = 0
Dangerous builds = 0
Setting up cg style minimization ...
  Unit style    : metal
  Current step  : 0
Per MPI rank memory allocation (min/avg/max) = 4.444 | 4.444 | 4.444 Mbytes
   Step         PotEng           Lx             Ly             Lz           Press           Pxx            Pyy            Pzz      
         0  -88.330963      8.6584976      7.4984789      22.713089     -6144.8571     -13857.027     -1771.618      -2805.9265    
        20  -89.034723      8.6584976      7.4984789      22.713089     -2955.7286     -8845.5911     -21.275772     -0.31900711   
Loop time of 0.00545511 on 1 procs for 20 steps with 27 atoms

96.5% CPU use with 1 MPI tasks x no OpenMP threads

Minimization stats:
  Stopping criterion = energy tolerance
  Energy initial, next-to-last, final = 
     -88.3309627360304  -89.0347233181069   -89.034723321989
  Force two-norm initial, final = 2.7330626 5.7130316e-05
  Force max component initial, final = 0.65819482 1.7550384e-05
  Final line search alpha, max atom move = 1 1.7550384e-05
  Iterations, force evaluations = 20 39

MPI task timing breakdown:
Section |  min time  |  avg time  |  max time  |%varavg| %total
---------------------------------------------------------------
Pair    | 0.0052096  | 0.0052096  | 0.0052096  |   0.0 | 95.50
Neigh   | 0          | 0          | 0          |   0.0 |  0.00
Comm    | 8.3488e-05 | 8.3488e-05 | 8.3488e-05 |   0.0 |  1.53
Output  | 0          | 0          | 0          |   0.0 |  0.00
Modify  | 0          | 0          | 0          |   0.0 |  0.00
Other   |            | 0.0001621  |            |       |  2.97

Nlocal:             27 ave          27 max          27 min
Histogram: 1 0 0 0 0 0 0 0 0 0
Nghost:            412 ave         412 max         412 min
Histogram: 1 0 0 0 0 0 0 0 0 0
Neighs:           2442 ave        2442 max        2442 min
Histogram: 1 0 0 0 0 0 0 0 0 0

Total # of neighbors = 2442
Ave neighs/atom = 90.444444
Neighbor list builds = 0
Dangerous builds = 0
Total energy (eV) = -89.034723321989
Number of atoms = 27
Lattice constant (Angstoms) = 8.65849758507688
Total wall time: 0:00:00
