LAMMPS (22 Jul 2025 - Update 1)
Reading data file ...
  orthogonal box = (0 0 0) to (8.6584976 8.6584976 26.32662)
  1 by 1 by 1 MPI processor grid
  reading atoms ...
  81 atoms
  read_data CPU = 0.001 seconds
Reading eam/alloy potential file /home/bond/Software/LAMMPS/lammps-22Jul2025/potentials/Al_zhou.eam.alloy with DATE: 2007-10-12
WARNING: No fixes with time integration, atoms won't move
For more information see https://docs.lammps.org/err0028 (../verlet.cpp:60)
Neighbor list info ...
  update: every = 1 steps, delay = 0 steps, check = yes
  max neighbors/atom: 2000, page size: 100000
  master list distance cutoff = 12.1025
  ghost atom cutoff = 12.1025
  binsize = 6.05125, bins = 2 2 5
  1 neighbor lists, perpetual/occasional/extra = 1 0 0
  (1) pair eam/alloy, perpetual
      attributes: half, newton on
      pair build: half/bin/atomonly/newton
      stencil: half/bin/3d
      bin: standard
Setting up Verlet run ...
  Unit style    : metal
  Current step  : 0
  Time step     : 0.001
Per MPI rank memory allocation (min/avg/max) = 3.352 | 3.352 | 3.352 Mbytes
   Step         PotEng           Lx             Ly             Lz           Press           Pxx            Pyy            Pzz      
         0  -281.78722      8.6584976      8.6584976      26.32662      -12099.378     -14604.925     -14604.925     -7088.2849    
Loop time of 1.88e-06 on 1 procs for 0 steps with 81 atoms

0.0% CPU use with 1 MPI tasks x no OpenMP threads

MPI task timing breakdown:
Section |  min time  |  avg time  |  max time  |%varavg| %total
---------------------------------------------------------------
Pair    | 0          | 0          | 0          |   0.0 |  0.00
Neigh   | 0          | 0          | 0          |   0.0 |  0.00
Comm    | 0          | 0          | 0          |   0.0 |  0.00
Output  | 0          | 0          | 0          |   0.0 |  0.00
Modify  | 0          | 0          | 0          |   0.0 |  0.00
Other   |            | 1.88e-06   |            |       |100.00

Nlocal:             81 ave          81 max          81 min
Histogram: 1 0 0 0 0 0 0 0 0 0
Nghost:           1123 ave        1123 max        1123 min
Histogram: 1 0 0 0 0 0 0 0 0 0
Neighs:          13104 ave       13104 max       13104 min
Histogram: 1 0 0 0 0 0 0 0 0 0

Total # of neighbors = 13104
Ave neighs/atom = 161.77778
Neighbor list builds = 0
Dangerous builds = 0
Total energy (eV) = -281.787216874874
Number of atoms = 81
Lattice constant (Angstoms) = 8.65849758507688
Total wall time: 0:00:00
