
     Program PWSCF v.7.4.1 starts on  8Oct2025 at 21:42:14 

     This program is part of the open-source Quantum ESPRESSO suite
     for quantum simulation of materials; please cite
         "P. Giannozzi et al., J. Phys.:Condens. Matter 21 395502 (2009);
         "P. Giannozzi et al., J. Phys.:Condens. Matter 29 465901 (2017);
         "P. Giannozzi et al., J. Chem. Phys. 152 154105 (2020);
          URL http://www.quantum-espresso.org", 
     in publications or presentations arising from this work. More details at
     http://www.quantum-espresso.org/quote

     Parallel version (MPI), running on     1 processors

     MPI processes distributed on     1 nodes
     647 MiB available memory on the printing compute node when the environment starts

     Waiting for input...
     Reading input from standard input
Warning: card &CELL ignored
Warning: card / ignored

     Current dimensions of program PWSCF are:
     Max number of different atomic species (ntypx) = 10
     Max number of k-points (npk) =  40000
     Max angular momentum in pseudopotentials (lmaxx) =  4
     Message from routine find_sym:
     Not a group! Trying with lower acceptance parameter...
     Message from routine find_sym:
     Still not a group! symmetry disabled

     Subspace diagonalization in iterative solution of the eigenvalue problem:
     a serial algorithm will be used


     G-vector sticks info
     --------------------
     sticks:   dense  smooth     PW     G-vecs:    dense   smooth      PW
     Sum         547     547    163                 8363     8363    1459

     Using Slab Decomposition



     bravais-lattice index     =            0
     lattice parameter (alat)  =       7.5008  a.u.
     unit-cell volume          =     298.4002 (a.u.)^3
     number of atoms/cell      =            2
     number of atomic types    =            1
     number of electrons       =        28.00
     number of Kohn-Sham states=           14
     kinetic-energy cutoff     =      35.0000  Ry
     charge density cutoff     =     140.0000  Ry
     scf convergence threshold =      1.0E-07
     mixing beta               =       0.5000
     number of iterations used =            8  plain     mixing
     Exchange-correlation=  SLA  PZ   NOGX NOGC
                           (   1   1   0   0   0   0   0)

     celldm(1)=   7.500750  celldm(2)=   0.000000  celldm(3)=   0.000000
     celldm(4)=   0.000000  celldm(5)=   0.000000  celldm(6)=   0.000000

     crystal axes: (cart. coord. in units of alat)
               a(1) = (   0.000000   0.707107   0.707107 )  
               a(2) = (   0.707107   0.000000   0.707107 )  
               a(3) = (   0.707107   0.707107   0.000000 )  

     reciprocal axes: (cart. coord. in units 2 pi/alat)
               b(1) = ( -0.707107  0.707107  0.707107 )  
               b(2) = (  0.707107 -0.707107  0.707107 )  
               b(3) = (  0.707107  0.707107 -0.707107 )  


     PseudoPot. # 1 for Ge read from file:
     /home/bond/Software/QE/qe-7.4.1/pseudo/ge_lda_v1.4.uspp.F.UPF
     MD5 check sum: bf9d52b59cc8a669818bb2b52e0c2ba0
     Pseudo is Ultrasoft + core correction, Zval = 14.0
     Generated by new atomic code, or converted to UPF format
     Using radial grid of  873 points,  6 beta functions with: 
                l(1) =   0
                l(2) =   0
                l(3) =   1
                l(4) =   1
                l(5) =   2
                l(6) =   2
     Q(r) pseudized with  8 coefficients,  rinner =    1.400   1.400   1.400
                                                       1.400   1.400

     atomic species   valence    mass     pseudopotential
     Ge               14.00    72.63000     Ge( 1.00)

     No symmetry found



   Cartesian axes

     site n.     atom                  positions (alat units)
         1        Ge     tau(   1) = (   0.0000000   0.0000000   0.0000000  )
         2        Ge     tau(   2) = (   0.3535526   0.3535526   0.3535526  )

     number of k points=   504

     Number of k-points >= 100: set verbosity='high' to print them.

     Dense  grid:     8363 G-vectors     FFT dimensions: (  32,  32,  32)

     Estimated max dynamical RAM per process >     145.42 MB

     Check: negative core charge=   -0.000014

     Initial potential from superposition of free atoms

     starting charge      27.9986, renormalised to      28.0000
     Starting wfcs are   18 randomized atomic wfcs

     total cpu time spent up to now is        4.7 secs

     Self-consistent Calculation

     iteration #  1     ecut=    35.00 Ry     beta= 0.50
     Davidson diagonalization with overlap
     ethr =  1.00E-02,  avg # of iterations =  1.8

     Threshold (ethr) on eigenvalues was too large:
     Diagonalizing with lowered threshold

     Davidson diagonalization with overlap
     ethr =  1.21E-04,  avg # of iterations =  2.0

     total cpu time spent up to now is       22.2 secs

     total energy              =    -426.17004472 Ry
     estimated scf accuracy    <       0.03586109 Ry

     iteration #  2     ecut=    35.00 Ry     beta= 0.50
     Davidson diagonalization with overlap
     ethr =  1.28E-04,  avg # of iterations =  1.0

     total cpu time spent up to now is       29.9 secs

     total energy              =    -426.16870001 Ry
     estimated scf accuracy    <       0.00624451 Ry

     iteration #  3     ecut=    35.00 Ry     beta= 0.50
     Davidson diagonalization with overlap
     ethr =  2.23E-05,  avg # of iterations =  2.0

     total cpu time spent up to now is       38.8 secs

     total energy              =    -426.16918113 Ry
     estimated scf accuracy    <       0.00006984 Ry

     iteration #  4     ecut=    35.00 Ry     beta= 0.50
     Davidson diagonalization with overlap
     ethr =  2.49E-07,  avg # of iterations =  3.6

     total cpu time spent up to now is       50.2 secs

     total energy              =    -426.16920803 Ry
     estimated scf accuracy    <       0.00000374 Ry

     iteration #  5     ecut=    35.00 Ry     beta= 0.50
     Davidson diagonalization with overlap
     ethr =  1.34E-08,  avg # of iterations =  3.1

     total cpu time spent up to now is       61.4 secs

     total energy              =    -426.16920896 Ry
     estimated scf accuracy    <       0.00000011 Ry

     iteration #  6     ecut=    35.00 Ry     beta= 0.50
     Davidson diagonalization with overlap
     ethr =  3.76E-10,  avg # of iterations =  4.3

     total cpu time spent up to now is       74.3 secs

     End of self-consistent calculation

     Number of k-points >= 100: set verbosity='high' to print the bands.

     highest occupied level (ev):     8.4645

!    total energy              =    -426.16920902 Ry
     estimated scf accuracy    <       0.00000001 Ry

     The total energy is the sum of the following terms:
     one-electron contribution =    -276.52655465 Ry
     hartree contribution      =     163.98914008 Ry
     xc contribution           =    -114.56580754 Ry
     ewald contribution        =    -199.06598691 Ry

     convergence has been achieved in   6 iterations

     Forces acting on atoms (cartesian axes, Ry/au):

     atom    1 type  1   force =    -0.00000717   -0.00003153    0.00001933
     atom    2 type  1   force =     0.00000717    0.00003153   -0.00001933

     Total force =     0.000053     Total SCF correction =     0.000063
     SCF correction compared to forces is large: reduce conv_thr to get better values


     Computing stress (Cartesian axis) and pressure

          total   stress  (Ry/bohr**3)                   (kbar)     P=      -11.63
  -0.00007909   0.00000001   0.00000000          -11.63        0.00        0.00
   0.00000001  -0.00007908   0.00000000            0.00      -11.63        0.00
   0.00000000   0.00000000  -0.00007908            0.00        0.00      -11.63

     Message from routine punch:
     Nothing written, as per user request (disk_io='none')

     init_run     :      4.42s CPU      4.58s WALL (       1 calls)
     electrons    :     68.33s CPU     69.58s WALL (       1 calls)
     forces       :      0.55s CPU      0.56s WALL (       1 calls)
     stress       :      2.90s CPU      2.93s WALL (       1 calls)

     Called by init_run:
     wfcinit      :      4.07s CPU      4.20s WALL (       1 calls)
     potinit      :      0.01s CPU      0.01s WALL (       1 calls)
     hinit0       :      0.27s CPU      0.28s WALL (       1 calls)

     Called by electrons:
     c_bands      :     58.85s CPU     59.95s WALL (       7 calls)
     sum_band     :      9.33s CPU      9.48s WALL (       7 calls)
     v_of_rho     :      0.01s CPU      0.01s WALL (       7 calls)
     newd         :      0.15s CPU      0.18s WALL (       7 calls)
     mix_rho      :      0.00s CPU      0.00s WALL (       7 calls)

     Called by c_bands:
     init_us_2    :      2.17s CPU      2.22s WALL (    8568 calls)
     cegterg      :     53.41s CPU     54.37s WALL (    3528 calls)

     Called by *egterg:
     cdiaghg      :      2.20s CPU      2.24s WALL (   11982 calls)
     h_psi        :     47.65s CPU     48.55s WALL (   12990 calls)
     s_psi        :      1.28s CPU      1.30s WALL (   12990 calls)
     g_psi        :      0.35s CPU      0.35s WALL (    8958 calls)

     Called by h_psi:
     h_psi:calbec :      1.68s CPU      1.71s WALL (   12990 calls)
     vloc_psi     :     44.27s CPU     45.12s WALL (   12990 calls)
     add_vuspsi   :      1.34s CPU      1.37s WALL (   12990 calls)

     General routines
     calbec       :      3.11s CPU      3.16s WALL (   25086 calls)
     fft          :      0.14s CPU      0.14s WALL (      37 calls)
     ffts         :      0.00s CPU      0.00s WALL (       7 calls)
     fftw         :     43.58s CPU     44.39s WALL (  326180 calls)

     Parallel routines

     PWSCF        :   1m16.29s CPU   1m17.75s WALL


   This run was terminated on:  21:43:32   8Oct2025            

=------------------------------------------------------------------------------=
   JOB DONE.
=------------------------------------------------------------------------------=
