
     Program PWSCF v.7.4.1 starts on  7Oct2025 at 23:57:49 

     This program is part of the open-source Quantum ESPRESSO suite
     for quantum simulation of materials; please cite
         "P. Giannozzi et al., J. Phys.:Condens. Matter 21 395502 (2009);
         "P. Giannozzi et al., J. Phys.:Condens. Matter 29 465901 (2017);
         "P. Giannozzi et al., J. Chem. Phys. 152 154105 (2020);
          URL http://www.quantum-espresso.org", 
     in publications or presentations arising from this work. More details at
     http://www.quantum-espresso.org/quote

     Parallel version (MPI), running on     1 processors

     MPI processes distributed on     1 nodes
     225 MiB available memory on the printing compute node when the environment starts

     Waiting for input...
     Reading input from standard input
Warning: card &CELL ignored
Warning: card / ignored

     Current dimensions of program PWSCF are:
     Max number of different atomic species (ntypx) = 10
     Max number of k-points (npk) =  40000
     Max angular momentum in pseudopotentials (lmaxx) =  4
     Message from routine setup:
     using ibrav=0 with symmetry is DISCOURAGED, use correct ibrav instead

     Subspace diagonalization in iterative solution of the eigenvalue problem:
     a serial algorithm will be used


     G-vector sticks info
     --------------------
     sticks:   dense  smooth     PW     G-vecs:    dense   smooth      PW
     Sum         955     955    283                19195    19195    3119

     Using Slab Decomposition



     bravais-lattice index     =            0
     lattice parameter (alat)  =       7.5604  a.u.
     unit-cell volume          =     305.5804 (a.u.)^3
     number of atoms/cell      =            2
     number of atomic types    =            1
     number of electrons       =        28.00
     number of Kohn-Sham states=           14
     kinetic-energy cutoff     =      60.0000  Ry
     charge density cutoff     =     240.0000  Ry
     scf convergence threshold =      1.0E-07
     mixing beta               =       0.5000
     number of iterations used =            8  plain     mixing
     Exchange-correlation=  SLA  PZ   NOGX NOGC
                           (   1   1   0   0   0   0   0)

     celldm(1)=   7.560435  celldm(2)=   0.000000  celldm(3)=   0.000000
     celldm(4)=   0.000000  celldm(5)=   0.000000  celldm(6)=   0.000000

     crystal axes: (cart. coord. in units of alat)
               a(1) = (   0.000000   0.707107   0.707107 )  
               a(2) = (   0.707107   0.000000   0.707107 )  
               a(3) = (   0.707107   0.707107   0.000000 )  

     reciprocal axes: (cart. coord. in units 2 pi/alat)
               b(1) = ( -0.707107  0.707107  0.707107 )  
               b(2) = (  0.707107 -0.707107  0.707107 )  
               b(3) = (  0.707107  0.707107 -0.707107 )  


     PseudoPot. # 1 for Ge read from file:
     /home/bond/Software/QE/qe-7.4.1/pseudo/ge_lda_v1.4.uspp.F.UPF
     MD5 check sum: bf9d52b59cc8a669818bb2b52e0c2ba0
     Pseudo is Ultrasoft + core correction, Zval = 14.0
     Generated by new atomic code, or converted to UPF format
     Using radial grid of  873 points,  6 beta functions with: 
                l(1) =   0
                l(2) =   0
                l(3) =   1
                l(4) =   1
                l(5) =   2
                l(6) =   2
     Q(r) pseudized with  8 coefficients,  rinner =    1.400   1.400   1.400
                                                       1.400   1.400

     atomic species   valence    mass     pseudopotential
     Ge               14.00    72.63000     Ge( 1.00)

     48 Sym. Ops., with inversion, found (24 have fractional translation)



   Cartesian axes

     site n.     atom                  positions (alat units)
         1        Ge     tau(   1) = (   0.0000000   0.0000000   0.0000000  )
         2        Ge     tau(   2) = (   0.3535534   0.3535534   0.3535534  )

     number of k points=     8
                       cart. coord. in units 2pi/alat
        k(    1) = (   0.0000000   0.0000000   0.0000000), wk =   0.0312500
        k(    2) = (   0.1767767   0.1767767  -0.1767767), wk =   0.2500000
        k(    3) = (  -0.3535534  -0.3535534   0.3535534), wk =   0.1250000
        k(    4) = (   0.3535534   0.0000000   0.0000000), wk =   0.1875000
        k(    5) = (  -0.1767767  -0.5303301   0.5303301), wk =   0.7500000
        k(    6) = (   0.0000000  -0.3535534   0.3535534), wk =   0.3750000
        k(    7) = (  -0.7071068   0.0000000   0.0000000), wk =   0.0937500
        k(    8) = (  -0.7071068   0.3535534   0.0000000), wk =   0.1875000

     Dense  grid:    19195 G-vectors     FFT dimensions: (  40,  40,  40)

     Estimated max dynamical RAM per process >      78.42 MB

     Check: negative core charge=   -0.000001

     Initial potential from superposition of free atoms

     starting charge      27.9986, renormalised to      28.0000
     Starting wfcs are   18 randomized atomic wfcs

     total cpu time spent up to now is        1.4 secs

     Self-consistent Calculation

     iteration #  1     ecut=    60.00 Ry     beta= 0.50
     Davidson diagonalization with overlap
     ethr =  1.00E-02,  avg # of iterations =  1.6

     Threshold (ethr) on eigenvalues was too large:
     Diagonalizing with lowered threshold

     Davidson diagonalization with overlap
     ethr =  1.30E-04,  avg # of iterations =  2.0

     total cpu time spent up to now is        3.5 secs

     total energy              =    -426.15263971 Ry
     estimated scf accuracy    <       0.03935618 Ry

     iteration #  2     ecut=    60.00 Ry     beta= 0.50
     Davidson diagonalization with overlap
     ethr =  1.41E-04,  avg # of iterations =  1.1

     total cpu time spent up to now is        4.4 secs

     total energy              =    -426.15111166 Ry
     estimated scf accuracy    <       0.00696216 Ry

     iteration #  3     ecut=    60.00 Ry     beta= 0.50
     Davidson diagonalization with overlap
     ethr =  2.49E-05,  avg # of iterations =  2.0

     total cpu time spent up to now is        5.2 secs

     total energy              =    -426.15161730 Ry
     estimated scf accuracy    <       0.00007495 Ry

     iteration #  4     ecut=    60.00 Ry     beta= 0.50
     Davidson diagonalization with overlap
     ethr =  2.68E-07,  avg # of iterations =  4.0

     total cpu time spent up to now is        6.3 secs

     total energy              =    -426.15163751 Ry
     estimated scf accuracy    <       0.00000310 Ry

     iteration #  5     ecut=    60.00 Ry     beta= 0.50
     Davidson diagonalization with overlap
     ethr =  1.11E-08,  avg # of iterations =  3.0

     total cpu time spent up to now is        7.3 secs

     total energy              =    -426.15163825 Ry
     estimated scf accuracy    <       0.00000014 Ry

     iteration #  6     ecut=    60.00 Ry     beta= 0.50
     Davidson diagonalization with overlap
     ethr =  4.94E-10,  avg # of iterations =  4.0

     total cpu time spent up to now is        8.1 secs

     End of self-consistent calculation

          k = 0.0000 0.0000 0.0000 (  2421 PWs)   bands (ev):

   -16.6788 -16.6788 -16.6788 -16.6427 -16.6427 -16.4316 -16.4316 -16.4316
   -16.4182 -16.4182  -4.6286   8.0077   8.1966   8.1966

          k = 0.1768 0.1768-0.1768 (  2418 PWs)   bands (ev):

   -16.6970 -16.6970 -16.6702 -16.6141 -16.6141 -16.4574 -16.4574 -16.4417
   -16.3977 -16.3977  -3.8865   3.4149   7.3105   7.3105

          k =-0.3536-0.3536 0.3536 (  2392 PWs)   bands (ev):

   -16.7033 -16.7033 -16.6613 -16.6008 -16.6008 -16.4662 -16.4662 -16.4523
   -16.3908 -16.3908  -2.5397   0.5411   6.7884   6.7884

          k = 0.3536 0.0000 0.0000 (  2413 PWs)   bands (ev):

   -16.6971 -16.6971 -16.6852 -16.6085 -16.5734 -16.5188 -16.4498 -16.4055
   -16.4030 -16.4030  -3.6187   3.4065   6.1508   6.1508

          k =-0.1768-0.5303 0.5303 (  2405 PWs)   bands (ev):

   -16.7245 -16.7094 -16.6413 -16.5737 -16.5542 -16.5354 -16.4873 -16.4558
   -16.3829 -16.3685  -2.1302   0.7529   4.4378   5.7863

          k = 0.0000-0.3536 0.3536 (  2395 PWs)   bands (ev):

   -16.7196 -16.7122 -16.6349 -16.5984 -16.5708 -16.4988 -16.4795 -16.4663
   -16.3793 -16.3759  -2.7442   1.6072   4.2979   6.6868

          k =-0.7071 0.0000 0.0000 (  2402 PWs)   bands (ev):

   -16.7128 -16.7128 -16.6272 -16.6272 -16.5278 -16.5278 -16.4703 -16.4703
   -16.3769 -16.3769  -0.7471  -0.7471   5.1124   5.1124

          k =-0.7071 0.3536 0.0000 (  2400 PWs)   bands (ev):

   -16.7267 -16.7267 -16.5847 -16.5847 -16.5356 -16.5356 -16.5034 -16.5034
   -16.3647 -16.3647  -0.6492  -0.6492   4.2630   4.2630

     highest occupied level (ev):     8.1966

!    total energy              =    -426.15163829 Ry
     estimated scf accuracy    <       0.00000003 Ry

     The total energy is the sum of the following terms:
     one-electron contribution =    -279.23802338 Ry
     hartree contribution      =     165.13213678 Ry
     xc contribution           =    -114.55127661 Ry
     ewald contribution        =    -197.49447509 Ry

     convergence has been achieved in   6 iterations

     Forces acting on atoms (cartesian axes, Ry/au):

     atom    1 type  1   force =     0.00000000    0.00000000    0.00000000
     atom    2 type  1   force =     0.00000000    0.00000000    0.00000000

     Total force =     0.000000     Total SCF correction =     0.000000


     Computing stress (Cartesian axis) and pressure

          total   stress  (Ry/bohr**3)                   (kbar)     P=       -3.19
  -0.00002168   0.00000000  -0.00000000           -3.19        0.00       -0.00
   0.00000000  -0.00002168  -0.00000000            0.00       -3.19       -0.00
  -0.00000000  -0.00000000  -0.00002168           -0.00       -0.00       -3.19

     Message from routine punch:
     Nothing written, as per user request (disk_io='none')

     init_run     :      1.17s CPU      1.23s WALL (       1 calls)
     electrons    :      5.63s CPU      6.71s WALL (       1 calls)
     forces       :      0.12s CPU      0.16s WALL (       1 calls)
     stress       :      1.07s CPU      1.26s WALL (       1 calls)

     Called by init_run:
     wfcinit      :      0.42s CPU      0.42s WALL (       1 calls)
     potinit      :      0.03s CPU      0.03s WALL (       1 calls)
     hinit0       :      0.62s CPU      0.64s WALL (       1 calls)

     Called by electrons:
     c_bands      :      3.77s CPU      4.11s WALL (       7 calls)
     sum_band     :      1.33s CPU      1.89s WALL (       7 calls)
     v_of_rho     :      0.04s CPU      0.04s WALL (       7 calls)
     newd         :      0.56s CPU      0.78s WALL (       7 calls)
     mix_rho      :      0.02s CPU      0.02s WALL (       7 calls)

     Called by c_bands:
     init_us_2    :      0.15s CPU      0.22s WALL (     136 calls)
     cegterg      :      3.44s CPU      3.73s WALL (      56 calls)

     Called by *egterg:
     cdiaghg      :      0.06s CPU      0.06s WALL (     190 calls)
     h_psi        :      3.35s CPU      3.58s WALL (     206 calls)
     s_psi        :      0.08s CPU      0.08s WALL (     206 calls)
     g_psi        :      0.02s CPU      0.02s WALL (     142 calls)

     Called by h_psi:
     h_psi:calbec :      0.11s CPU      0.11s WALL (     206 calls)
     vloc_psi     :      3.13s CPU      3.35s WALL (     206 calls)
     add_vuspsi   :      0.09s CPU      0.09s WALL (     206 calls)

     General routines
     calbec       :      0.19s CPU      0.20s WALL (     398 calls)
     fft          :      0.29s CPU      0.30s WALL (      37 calls)
     ffts         :      0.01s CPU      0.01s WALL (       7 calls)
     fftw         :      3.11s CPU      3.39s WALL (    5058 calls)

     Parallel routines

     PWSCF        :      8.13s CPU      9.52s WALL


   This run was terminated on:  23:57:58   7Oct2025            

=------------------------------------------------------------------------------=
   JOB DONE.
=------------------------------------------------------------------------------=
