Header of the LAMMPS data file 

255 atoms 
1 atom types

0.0 16.2  xlo xhi
0.0 16.2  ylo yhi
0.0 16.2  zlo zhi

Masses 

1  26.9815385

Atoms # atomic 

1 1 0.00000 2.02500 2.02500 
2 1 2.02500 0.00000 2.02500 
3 1 2.02500 2.02500 0.00000 
4 1 0.00000 0.00000 4.05000 
5 1 0.00000 2.02500 6.07500 
6 1 2.02500 0.00000 6.07500 
7 1 2.02500 2.02500 4.05000 
8 1 0.00000 0.00000 8.10000 
9 1 0.00000 2.02500 10.12500 
10 1 2.02500 0.00000 10.12500 
11 1 2.02500 2.02500 8.10000 
12 1 0.00000 0.00000 12.15000 
13 1 0.00000 2.02500 14.17500 
14 1 2.02500 0.00000 14.17500 
15 1 2.02500 2.02500 12.15000 
16 1 0.00000 4.05000 0.00000 
17 1 0.00000 6.07500 2.02500 
18 1 2.02500 4.05000 2.02500 
19 1 2.02500 6.07500 0.00000 
20 1 0.00000 4.05000 4.05000 
21 1 0.00000 6.07500 6.07500 
22 1 2.02500 4.05000 6.07500 
23 1 2.02500 6.07500 4.05000 
24 1 0.00000 4.05000 8.10000 
25 1 0.00000 6.07500 10.12500 
26 1 2.02500 4.05000 10.12500 
27 1 2.02500 6.07500 8.10000 
28 1 0.00000 4.05000 12.15000 
29 1 0.00000 6.07500 14.17500 
30 1 2.02500 4.05000 14.17500 
31 1 2.02500 6.07500 12.15000 
32 1 0.00000 8.10000 0.00000 
33 1 0.00000 10.12500 2.02500 
34 1 2.02500 8.10000 2.02500 
35 1 2.02500 10.12500 0.00000 
36 1 0.00000 8.10000 4.05000 
37 1 0.00000 10.12500 6.07500 
38 1 2.02500 8.10000 6.07500 
39 1 2.02500 10.12500 4.05000 
40 1 0.00000 8.10000 8.10000 
41 1 0.00000 10.12500 10.12500 
42 1 2.02500 8.10000 10.12500 
43 1 2.02500 10.12500 8.10000 
44 1 0.00000 8.10000 12.15000 
45 1 0.00000 10.12500 14.17500 
46 1 2.02500 8.10000 14.17500 
47 1 2.02500 10.12500 12.15000 
48 1 0.00000 12.15000 0.00000 
49 1 0.00000 14.17500 2.02500 
50 1 2.02500 12.15000 2.02500 
51 1 2.02500 14.17500 0.00000 
52 1 0.00000 12.15000 4.05000 
53 1 0.00000 14.17500 6.07500 
54 1 2.02500 12.15000 6.07500 
55 1 2.02500 14.17500 4.05000 
56 1 0.00000 12.15000 8.10000 
57 1 0.00000 14.17500 10.12500 
58 1 2.02500 12.15000 10.12500 
59 1 2.02500 14.17500 8.10000 
60 1 0.00000 12.15000 12.15000 
61 1 0.00000 14.17500 14.17500 
62 1 2.02500 12.15000 14.17500 
63 1 2.02500 14.17500 12.15000 
64 1 4.05000 0.00000 0.00000 
65 1 4.05000 2.02500 2.02500 
66 1 6.07500 0.00000 2.02500 
67 1 6.07500 2.02500 0.00000 
68 1 4.05000 0.00000 4.05000 
69 1 4.05000 2.02500 6.07500 
70 1 6.07500 0.00000 6.07500 
71 1 6.07500 2.02500 4.05000 
72 1 4.05000 0.00000 8.10000 
73 1 4.05000 2.02500 10.12500 
74 1 6.07500 0.00000 10.12500 
75 1 6.07500 2.02500 8.10000 
76 1 4.05000 0.00000 12.15000 
77 1 4.05000 2.02500 14.17500 
78 1 6.07500 0.00000 14.17500 
79 1 6.07500 2.02500 12.15000 
80 1 4.05000 4.05000 0.00000 
81 1 4.05000 6.07500 2.02500 
82 1 6.07500 4.05000 2.02500 
83 1 6.07500 6.07500 0.00000 
84 1 4.05000 4.05000 4.05000 
85 1 4.05000 6.07500 6.07500 
86 1 6.07500 4.05000 6.07500 
87 1 6.07500 6.07500 4.05000 
88 1 4.05000 4.05000 8.10000 
89 1 4.05000 6.07500 10.12500 
90 1 6.07500 4.05000 10.12500 
91 1 6.07500 6.07500 8.10000 
92 1 4.05000 4.05000 12.15000 
93 1 4.05000 6.07500 14.17500 
94 1 6.07500 4.05000 14.17500 
95 1 6.07500 6.07500 12.15000 
96 1 4.05000 8.10000 0.00000 
97 1 4.05000 10.12500 2.02500 
98 1 6.07500 8.10000 2.02500 
99 1 6.07500 10.12500 0.00000 
100 1 4.05000 8.10000 4.05000 
101 1 4.05000 10.12500 6.07500 
102 1 6.07500 8.10000 6.07500 
103 1 6.07500 10.12500 4.05000 
104 1 4.05000 8.10000 8.10000 
105 1 4.05000 10.12500 10.12500 
106 1 6.07500 8.10000 10.12500 
107 1 6.07500 10.12500 8.10000 
108 1 4.05000 8.10000 12.15000 
109 1 4.05000 10.12500 14.17500 
110 1 6.07500 8.10000 14.17500 
111 1 6.07500 10.12500 12.15000 
112 1 4.05000 12.15000 0.00000 
113 1 4.05000 14.17500 2.02500 
114 1 6.07500 12.15000 2.02500 
115 1 6.07500 14.17500 0.00000 
116 1 4.05000 12.15000 4.05000 
117 1 4.05000 14.17500 6.07500 
118 1 6.07500 12.15000 6.07500 
119 1 6.07500 14.17500 4.05000 
120 1 4.05000 12.15000 8.10000 
121 1 4.05000 14.17500 10.12500 
122 1 6.07500 12.15000 10.12500 
123 1 6.07500 14.17500 8.10000 
124 1 4.05000 12.15000 12.15000 
125 1 4.05000 14.17500 14.17500 
126 1 6.07500 12.15000 14.17500 
127 1 6.07500 14.17500 12.15000 
128 1 8.10000 0.00000 0.00000 
129 1 8.10000 2.02500 2.02500 
130 1 10.12500 0.00000 2.02500 
131 1 10.12500 2.02500 0.00000 
132 1 8.10000 0.00000 4.05000 
133 1 8.10000 2.02500 6.07500 
134 1 10.12500 0.00000 6.07500 
135 1 10.12500 2.02500 4.05000 
136 1 8.10000 0.00000 8.10000 
137 1 8.10000 2.02500 10.12500 
138 1 10.12500 0.00000 10.12500 
139 1 10.12500 2.02500 8.10000 
140 1 8.10000 0.00000 12.15000 
141 1 8.10000 2.02500 14.17500 
142 1 10.12500 0.00000 14.17500 
143 1 10.12500 2.02500 12.15000 
144 1 8.10000 4.05000 0.00000 
145 1 8.10000 6.07500 2.02500 
146 1 10.12500 4.05000 2.02500 
147 1 10.12500 6.07500 0.00000 
148 1 8.10000 4.05000 4.05000 
149 1 8.10000 6.07500 6.07500 
150 1 10.12500 4.05000 6.07500 
151 1 10.12500 6.07500 4.05000 
152 1 8.10000 4.05000 8.10000 
153 1 8.10000 6.07500 10.12500 
154 1 10.12500 4.05000 10.12500 
155 1 10.12500 6.07500 8.10000 
156 1 8.10000 4.05000 12.15000 
157 1 8.10000 6.07500 14.17500 
158 1 10.12500 4.05000 14.17500 
159 1 10.12500 6.07500 12.15000 
160 1 8.10000 8.10000 0.00000 
161 1 8.10000 10.12500 2.02500 
162 1 10.12500 8.10000 2.02500 
163 1 10.12500 10.12500 0.00000 
164 1 8.10000 8.10000 4.05000 
165 1 8.10000 10.12500 6.07500 
166 1 10.12500 8.10000 6.07500 
167 1 10.12500 10.12500 4.05000 
168 1 8.10000 8.10000 8.10000 
169 1 8.10000 10.12500 10.12500 
170 1 10.12500 8.10000 10.12500 
171 1 10.12500 10.12500 8.10000 
172 1 8.10000 8.10000 12.15000 
173 1 8.10000 10.12500 14.17500 
174 1 10.12500 8.10000 14.17500 
175 1 10.12500 10.12500 12.15000 
176 1 8.10000 12.15000 0.00000 
177 1 8.10000 14.17500 2.02500 
178 1 10.12500 12.15000 2.02500 
179 1 10.12500 14.17500 0.00000 
180 1 8.10000 12.15000 4.05000 
181 1 8.10000 14.17500 6.07500 
182 1 10.12500 12.15000 6.07500 
183 1 10.12500 14.17500 4.05000 
184 1 8.10000 12.15000 8.10000 
185 1 8.10000 14.17500 10.12500 
186 1 10.12500 12.15000 10.12500 
187 1 10.12500 14.17500 8.10000 
188 1 8.10000 12.15000 12.15000 
189 1 8.10000 14.17500 14.17500 
190 1 10.12500 12.15000 14.17500 
191 1 10.12500 14.17500 12.15000 
192 1 12.15000 0.00000 0.00000 
193 1 12.15000 2.02500 2.02500 
194 1 14.17500 0.00000 2.02500 
195 1 14.17500 2.02500 0.00000 
196 1 12.15000 0.00000 4.05000 
197 1 12.15000 2.02500 6.07500 
198 1 14.17500 0.00000 6.07500 
199 1 14.17500 2.02500 4.05000 
200 1 12.15000 0.00000 8.10000 
201 1 12.15000 2.02500 10.12500 
202 1 14.17500 0.00000 10.12500 
203 1 14.17500 2.02500 8.10000 
204 1 12.15000 0.00000 12.15000 
205 1 12.15000 2.02500 14.17500 
206 1 14.17500 0.00000 14.17500 
207 1 14.17500 2.02500 12.15000 
208 1 12.15000 4.05000 0.00000 
209 1 12.15000 6.07500 2.02500 
210 1 14.17500 4.05000 2.02500 
211 1 14.17500 6.07500 0.00000 
212 1 12.15000 4.05000 4.05000 
213 1 12.15000 6.07500 6.07500 
214 1 14.17500 4.05000 6.07500 
215 1 14.17500 6.07500 4.05000 
216 1 12.15000 4.05000 8.10000 
217 1 12.15000 6.07500 10.12500 
218 1 14.17500 4.05000 10.12500 
219 1 14.17500 6.07500 8.10000 
220 1 12.15000 4.05000 12.15000 
221 1 12.15000 6.07500 14.17500 
222 1 14.17500 4.05000 14.17500 
223 1 14.17500 6.07500 12.15000 
224 1 12.15000 8.10000 0.00000 
225 1 12.15000 10.12500 2.02500 
226 1 14.17500 8.10000 2.02500 
227 1 14.17500 10.12500 0.00000 
228 1 12.15000 8.10000 4.05000 
229 1 12.15000 10.12500 6.07500 
230 1 14.17500 8.10000 6.07500 
231 1 14.17500 10.12500 4.05000 
232 1 12.15000 8.10000 8.10000 
233 1 12.15000 10.12500 10.12500 
234 1 14.17500 8.10000 10.12500 
235 1 14.17500 10.12500 8.10000 
236 1 12.15000 8.10000 12.15000 
237 1 12.15000 10.12500 14.17500 
238 1 14.17500 8.10000 14.17500 
239 1 14.17500 10.12500 12.15000 
240 1 12.15000 12.15000 0.00000 
241 1 12.15000 14.17500 2.02500 
242 1 14.17500 12.15000 2.02500 
243 1 14.17500 14.17500 0.00000 
244 1 12.15000 12.15000 4.05000 
245 1 12.15000 14.17500 6.07500 
246 1 14.17500 12.15000 6.07500 
247 1 14.17500 14.17500 4.05000 
248 1 12.15000 12.15000 8.10000 
249 1 12.15000 14.17500 10.12500 
250 1 14.17500 12.15000 10.12500 
251 1 14.17500 14.17500 8.10000 
252 1 12.15000 12.15000 12.15000 
253 1 12.15000 14.17500 14.17500 
254 1 14.17500 12.15000 14.17500 
255 1 14.17500 14.17500 12.15000 
