LAMMPS (22 Jul 2025 - Update 1)
Reading data file ...
  orthogonal box = (0 0 0) to (12.367569 8.7451919 9.2876599)
  1 by 1 by 1 MPI processor grid
  reading atoms ...
  54 atoms
  read_data CPU = 0.001 seconds
WARNING: No fixes with time integration, atoms won't move
For more information see https://docs.lammps.org/err0028 (../verlet.cpp:60)
Generated 0 of 0 mixed pair_coeff terms from geometric mixing rule
Neighbor list info ...
  update: every = 1 steps, delay = 0 steps, check = yes
  max neighbors/atom: 2000, page size: 100000
  master list distance cutoff = 6.5
  ghost atom cutoff = 6.5
  binsize = 3.25, bins = 4 3 3
  1 neighbor lists, perpetual/occasional/extra = 1 0 0
  (1) pair lj/cut, perpetual
      attributes: half, newton on
      pair build: half/bin/atomonly/newton
      stencil: half/bin/3d
      bin: standard
Setting up Verlet run ...
  Unit style    : metal
  Current step  : 0
  Time step     : 0.001
Per MPI rank memory allocation (min/avg/max) = 3.053 | 3.053 | 3.053 Mbytes
   Step         PotEng           Lx             Ly             Lz           Press           Pxx            Pyy            Pzz      
         0  -117.68862      12.367569      8.7451919      9.2876599      2575.0833     -7725.8843      11588.847      3862.2869    
Loop time of 2.274e-06 on 1 procs for 0 steps with 54 atoms

44.0% CPU use with 1 MPI tasks x no OpenMP threads

MPI task timing breakdown:
Section |  min time  |  avg time  |  max time  |%varavg| %total
---------------------------------------------------------------
Pair    | 0          | 0          | 0          |   0.0 |  0.00
Neigh   | 0          | 0          | 0          |   0.0 |  0.00
Comm    | 0          | 0          | 0          |   0.0 |  0.00
Output  | 0          | 0          | 0          |   0.0 |  0.00
Modify  | 0          | 0          | 0          |   0.0 |  0.00
Other   |            | 2.274e-06  |            |       |100.00

Nlocal:             54 ave          54 max          54 min
Histogram: 1 0 0 0 0 0 0 0 0 0
Nghost:            237 ave         237 max         237 min
Histogram: 1 0 0 0 0 0 0 0 0 0
Neighs:           1080 ave        1080 max        1080 min
Histogram: 1 0 0 0 0 0 0 0 0 0

Total # of neighbors = 1080
Ave neighs/atom = 20
Neighbor list builds = 0
Dangerous builds = 0
Generated 0 of 0 mixed pair_coeff terms from geometric mixing rule
Setting up cg style minimization ...
  Unit style    : metal
  Current step  : 0
WARNING: Energy due to 3 extra global DOFs will be included in minimizer energies
 (../min.cpp:222)
Per MPI rank memory allocation (min/avg/max) = 4.178 | 4.178 | 4.178 Mbytes
   Step         PotEng           Lx             Ly             Lz           Press           Pxx            Pyy            Pzz      
         0  -117.68862      12.367569      8.7451919      9.2876599      2575.0833     -7725.8843      11588.847      3862.2869    
        15  -117.70168      12.364918      8.7433176      9.2876599      4.0277545     -10818.585      10820.661      10.006698    
Loop time of 0.00121555 on 1 procs for 15 steps with 54 atoms

100.0% CPU use with 1 MPI tasks x no OpenMP threads

Minimization stats:
  Stopping criterion = energy tolerance
  Energy initial, next-to-last, final = 
     -117.688615398571  -117.701682376715  -117.701682380497
  Force two-norm initial, final = 1.7999832 0.0020097758
  Force max component initial, final = 1.210989 0.00065083684
  Final line search alpha, max atom move = 0.42395169 0.00027592338
  Iterations, force evaluations = 15 30

MPI task timing breakdown:
Section |  min time  |  avg time  |  max time  |%varavg| %total
---------------------------------------------------------------
Pair    | 0.00052115 | 0.00052115 | 0.00052115 |   0.0 | 42.87
Neigh   | 0          | 0          | 0          |   0.0 |  0.00
Comm    | 4.2942e-05 | 4.2942e-05 | 4.2942e-05 |   0.0 |  3.53
Output  | 0          | 0          | 0          |   0.0 |  0.00
Modify  | 0          | 0          | 0          |   0.0 |  0.00
Other   |            | 0.0006515  |            |       | 53.59

Nlocal:             54 ave          54 max          54 min
Histogram: 1 0 0 0 0 0 0 0 0 0
Nghost:            237 ave         237 max         237 min
Histogram: 1 0 0 0 0 0 0 0 0 0
Neighs:           1080 ave        1080 max        1080 min
Histogram: 1 0 0 0 0 0 0 0 0 0

Total # of neighbors = 1080
Ave neighs/atom = 20
Neighbor list builds = 0
Dangerous builds = 0
Total energy (eV) = -117.701682380497
Number of atoms = 54
Lattice constant (Angstoms) = 12.364918304516
Total wall time: 0:00:00
