LAMMPS (22 Jul 2025 - Update 1)
Reading data file ...
  orthogonal box = (0 0 0) to (4.122523 4.122523 4.122523)
  1 by 1 by 1 MPI processor grid
  reading atoms ...
  3 atoms
  read_data CPU = 0.001 seconds
WARNING: No fixes with time integration, atoms won't move
For more information see https://docs.lammps.org/err0028 (../verlet.cpp:60)
Generated 0 of 0 mixed pair_coeff terms from geometric mixing rule
Neighbor list info ...
  update: every = 1 steps, delay = 0 steps, check = yes
  max neighbors/atom: 2000, page size: 100000
  master list distance cutoff = 6.5
  ghost atom cutoff = 6.5
  binsize = 3.25, bins = 2 2 2
  1 neighbor lists, perpetual/occasional/extra = 1 0 0
  (1) pair lj/cut, perpetual
      attributes: half, newton on
      pair build: half/bin/atomonly/newton
      stencil: half/bin/3d
      bin: standard
Setting up Verlet run ...
  Unit style    : metal
  Current step  : 0
  Time step     : 0.001
Per MPI rank memory allocation (min/avg/max) = 2.958 | 2.958 | 2.958 Mbytes
   Step         PotEng           Lx             Ly             Lz           Press           Pxx            Pyy            Pzz      
         0  -5.5587395      4.122523       4.122523       4.122523      -12307.672     -12307.672     -12307.672     -12307.672    
Loop time of 2.003e-06 on 1 procs for 0 steps with 3 atoms

0.0% CPU use with 1 MPI tasks x no OpenMP threads

MPI task timing breakdown:
Section |  min time  |  avg time  |  max time  |%varavg| %total
---------------------------------------------------------------
Pair    | 0          | 0          | 0          |   0.0 |  0.00
Neigh   | 0          | 0          | 0          |   0.0 |  0.00
Comm    | 0          | 0          | 0          |   0.0 |  0.00
Output  | 0          | 0          | 0          |   0.0 |  0.00
Modify  | 0          | 0          | 0          |   0.0 |  0.00
Other   |            | 2.003e-06  |            |       |100.00

Nlocal:              3 ave           3 max           3 min
Histogram: 1 0 0 0 0 0 0 0 0 0
Nghost:            261 ave         261 max         261 min
Histogram: 1 0 0 0 0 0 0 0 0 0
Neighs:             63 ave          63 max          63 min
Histogram: 1 0 0 0 0 0 0 0 0 0

Total # of neighbors = 63
Ave neighs/atom = 21
Neighbor list builds = 0
Dangerous builds = 0
Generated 0 of 0 mixed pair_coeff terms from geometric mixing rule
Setting up cg style minimization ...
  Unit style    : metal
  Current step  : 0
WARNING: Energy due to 1 extra global DOFs will be included in minimizer energies
 (../min.cpp:222)
Per MPI rank memory allocation (min/avg/max) = 4.083 | 4.083 | 4.083 Mbytes
   Step         PotEng           Lx             Ly             Lz           Press           Pxx            Pyy            Pzz      
         0  -5.5587395      4.122523       4.122523       4.122523      -12307.672     -12307.672     -12307.672     -12307.672    
         8  -5.5621622      4.1053001      4.1053001      4.1053001     -2.2844915e-05 -2.2844933e-05 -2.2844883e-05 -2.2844929e-05
Loop time of 0.000176698 on 1 procs for 8 steps with 3 atoms

0.0% CPU use with 1 MPI tasks x no OpenMP threads

Minimization stats:
  Stopping criterion = energy tolerance
  Energy initial, next-to-last, final = 
     -5.55873949877493  -5.56216216216186  -5.56216216216216
  Force two-norm initial, final = 1.6146414 3.1719469e-09
  Force max component initial, final = 1.6146414 2.9720311e-09
  Final line search alpha, max atom move = 1 2.9720311e-09
  Iterations, force evaluations = 8 12

MPI task timing breakdown:
Section |  min time  |  avg time  |  max time  |%varavg| %total
---------------------------------------------------------------
Pair    | 3.5081e-05 | 3.5081e-05 | 3.5081e-05 |   0.0 | 19.85
Neigh   | 0          | 0          | 0          |   0.0 |  0.00
Comm    | 2.7903e-05 | 2.7903e-05 | 2.7903e-05 |   0.0 | 15.79
Output  | 0          | 0          | 0          |   0.0 |  0.00
Modify  | 0          | 0          | 0          |   0.0 |  0.00
Other   |            | 0.0001137  |            |       | 64.36

Nlocal:              3 ave           3 max           3 min
Histogram: 1 0 0 0 0 0 0 0 0 0
Nghost:            261 ave         261 max         261 min
Histogram: 1 0 0 0 0 0 0 0 0 0
Neighs:             63 ave          63 max          63 min
Histogram: 1 0 0 0 0 0 0 0 0 0

Total # of neighbors = 63
Ave neighs/atom = 21
Neighbor list builds = 0
Dangerous builds = 0
Total energy (eV) = -5.56216216216216
Number of atoms = 3
Lattice constant (Angstoms) = 4.10530010701238
Total wall time: 0:00:00
