
     Program PWSCF v.7.4.1 starts on 21Oct2025 at  0:37:22 

     This program is part of the open-source Quantum ESPRESSO suite
     for quantum simulation of materials; please cite
         "P. Giannozzi et al., J. Phys.:Condens. Matter 21 395502 (2009);
         "P. Giannozzi et al., J. Phys.:Condens. Matter 29 465901 (2017);
         "P. Giannozzi et al., J. Chem. Phys. 152 154105 (2020);
          URL http://www.quantum-espresso.org", 
     in publications or presentations arising from this work. More details at
     http://www.quantum-espresso.org/quote

     Parallel version (MPI), running on     2 processors

     MPI processes distributed on     1 nodes
     194 MiB available memory on the printing compute node when the environment starts

     Waiting for input...
     Reading input from standard input
Warning: card &CELL ignored
Warning: card / ignored

     Current dimensions of program PWSCF are:
     Max number of different atomic species (ntypx) = 10
     Max number of k-points (npk) =  40000
     Max angular momentum in pseudopotentials (lmaxx) =  4
     file Fe.pbe-nd-rrkjus.UPF: wavefunction(s)  4S renormalized
     Message from routine setup:
     using ibrav=0 with symmetry is DISCOURAGED, use correct ibrav instead

     R & G space division:  proc/nbgrp/npool/nimage =       2
     Subspace diagonalization in iterative solution of the eigenvalue problem:
     a serial algorithm will be used


     Parallelization info
     --------------------
     sticks:   dense  smooth     PW     G-vecs:    dense   smooth      PW
     Min         156      60     21                 4078     1010     202
     Max         157      61     22                 4085     1019     203
     Sum         313     121     43                 8163     2029     405

     Using Slab Decomposition



     bravais-lattice index     =            0
     lattice parameter (alat)  =       3.9684  a.u.
     unit-cell volume          =      94.0124 (a.u.)^3
     number of atoms/cell      =            2
     number of atomic types    =            1
     number of electrons       =        16.00
     number of Kohn-Sham states=           12
     kinetic-energy cutoff     =      30.0000  Ry
     charge density cutoff     =     300.0000  Ry
     scf convergence threshold =      1.0E-07
     mixing beta               =       0.5000
     number of iterations used =            8  plain     mixing
     Exchange-correlation=  SLA  PW   PBE  PBE
                           (   1   4   3   4   0   0   0)

     celldm(1)=   3.968425  celldm(2)=   0.000000  celldm(3)=   0.000000
     celldm(4)=   0.000000  celldm(5)=   0.000000  celldm(6)=   0.000000

     crystal axes: (cart. coord. in units of alat)
               a(1) = (   1.000000   0.000000   0.000000 )  
               a(2) = (  -0.500000   0.866025   0.000000 )  
               a(3) = (   0.000000   0.000000   1.737000 )  

     reciprocal axes: (cart. coord. in units 2 pi/alat)
               b(1) = (  1.000000  0.577350 -0.000000 )  
               b(2) = (  0.000000  1.154701  0.000000 )  
               b(3) = (  0.000000 -0.000000  0.575705 )  


     PseudoPot. # 1 for Fe read from file:
     /home/bond/Software/QE/qe-7.4.1/pseudo/Fe.pbe-nd-rrkjus.UPF
     MD5 check sum: 398036227a04b607635f6f5e8dfd8242
     Pseudo is Ultrasoft + core correction, Zval =  8.0
     Generated by new atomic code, or converted to UPF format
     Using radial grid of  957 points,  6 beta functions with: 
                l(1) =   0
                l(2) =   0
                l(3) =   1
                l(4) =   1
                l(5) =   2
                l(6) =   2
     Q(r) pseudized with 0 coefficients 


     atomic species   valence    mass     pseudopotential
     Fe                8.00    55.84500     Fe( 1.00)

     Starting magnetic structure 
     atomic species   magnetization
     Fe              0.700

     12 Sym. Ops. (no inversion) found



   Cartesian axes

     site n.     atom                  positions (alat units)
         1        Fe     tau(   1) = (   0.0000000   0.0000000   0.0000000  )
         2        Fe     tau(   2) = (   0.0000000   0.5773524   0.8685000  )

     number of k points=    96  Methfessel-Paxton smearing, width (Ry)=  0.0200
                       cart. coord. in units 2pi/alat
        k(    1) = (   0.0000000   0.0000000   0.0000000), wk =   0.0007289
        k(    2) = (   0.0000000   0.0000000   0.0822436), wk =   0.0014577
        k(    3) = (   0.0000000   0.0000000   0.1644872), wk =   0.0014577
        k(    4) = (   0.0000000   0.0000000   0.2467308), wk =   0.0014577
        k(    5) = (   0.0000000   0.0824786   0.0000000), wk =   0.0043732
        k(    6) = (   0.0000000   0.0824786   0.0822436), wk =   0.0087464
        k(    7) = (   0.0000000   0.0824786   0.1644872), wk =   0.0087464
        k(    8) = (   0.0000000   0.0824786   0.2467308), wk =   0.0087464
        k(    9) = (   0.0000000   0.1649572   0.0000000), wk =   0.0043732
        k(   10) = (   0.0000000   0.1649572   0.0822436), wk =   0.0087464
        k(   11) = (   0.0000000   0.1649572   0.1644872), wk =   0.0087464
        k(   12) = (   0.0000000   0.1649572   0.2467308), wk =   0.0087464
        k(   13) = (   0.0000000   0.2474358   0.0000000), wk =   0.0043732
        k(   14) = (   0.0000000   0.2474358   0.0822436), wk =   0.0087464
        k(   15) = (   0.0000000   0.2474358   0.1644872), wk =   0.0087464
        k(   16) = (   0.0000000   0.2474358   0.2467308), wk =   0.0087464
        k(   17) = (   0.0000000   0.3299144   0.0000000), wk =   0.0043732
        k(   18) = (   0.0000000   0.3299144   0.0822436), wk =   0.0087464
        k(   19) = (   0.0000000   0.3299144   0.1644872), wk =   0.0087464
        k(   20) = (   0.0000000   0.3299144   0.2467308), wk =   0.0087464
        k(   21) = (   0.0000000   0.4123930   0.0000000), wk =   0.0043732
        k(   22) = (   0.0000000   0.4123930   0.0822436), wk =   0.0087464
        k(   23) = (   0.0000000   0.4123930   0.1644872), wk =   0.0087464
        k(   24) = (   0.0000000   0.4123930   0.2467308), wk =   0.0087464
        k(   25) = (   0.0000000   0.4948717   0.0000000), wk =   0.0043732
        k(   26) = (   0.0000000   0.4948717   0.0822436), wk =   0.0087464
        k(   27) = (   0.0000000   0.4948717   0.1644872), wk =   0.0087464
        k(   28) = (   0.0000000   0.4948717   0.2467308), wk =   0.0087464
        k(   29) = (   0.0000000  -0.5773503   0.0000000), wk =   0.0021866
        k(   30) = (   0.0000000  -0.5773503   0.0822436), wk =   0.0043732
        k(   31) = (   0.0000000  -0.5773503   0.1644872), wk =   0.0043732
        k(   32) = (   0.0000000  -0.5773503   0.2467308), wk =   0.0043732
        k(   33) = (   0.0714286   0.1237179   0.0000000), wk =   0.0043732
        k(   34) = (   0.0714286   0.1237179   0.0822436), wk =   0.0087464
        k(   35) = (   0.0714286   0.1237179   0.1644872), wk =   0.0087464
        k(   36) = (   0.0714286   0.1237179   0.2467308), wk =   0.0087464
        k(   37) = (   0.0714286   0.2061965   0.0000000), wk =   0.0087464
        k(   38) = (   0.0714286   0.2061965   0.0822436), wk =   0.0174927
        k(   39) = (   0.0714286   0.2061965   0.1644872), wk =   0.0174927
        k(   40) = (   0.0714286   0.2061965   0.2467308), wk =   0.0174927
        k(   41) = (   0.0714286   0.2886751   0.0000000), wk =   0.0087464
        k(   42) = (   0.0714286   0.2886751   0.0822436), wk =   0.0174927
        k(   43) = (   0.0714286   0.2886751   0.1644872), wk =   0.0174927
        k(   44) = (   0.0714286   0.2886751   0.2467308), wk =   0.0174927
        k(   45) = (   0.0714286   0.3711537   0.0000000), wk =   0.0087464
        k(   46) = (   0.0714286   0.3711537   0.0822436), wk =   0.0174927
        k(   47) = (   0.0714286   0.3711537   0.1644872), wk =   0.0174927
        k(   48) = (   0.0714286   0.3711537   0.2467308), wk =   0.0174927
        k(   49) = (   0.0714286   0.4536324   0.0000000), wk =   0.0087464
        k(   50) = (   0.0714286   0.4536324   0.0822436), wk =   0.0174927
        k(   51) = (   0.0714286   0.4536324   0.1644872), wk =   0.0174927
        k(   52) = (   0.0714286   0.4536324   0.2467308), wk =   0.0174927
        k(   53) = (   0.0714286   0.5361110   0.0000000), wk =   0.0087464
        k(   54) = (   0.0714286   0.5361110   0.0822436), wk =   0.0174927
        k(   55) = (   0.0714286   0.5361110   0.1644872), wk =   0.0174927
        k(   56) = (   0.0714286   0.5361110   0.2467308), wk =   0.0174927
        k(   57) = (   0.1428571   0.2474358   0.0000000), wk =   0.0043732
        k(   58) = (   0.1428571   0.2474358   0.0822436), wk =   0.0087464
        k(   59) = (   0.1428571   0.2474358   0.1644872), wk =   0.0087464
        k(   60) = (   0.1428571   0.2474358   0.2467308), wk =   0.0087464
        k(   61) = (   0.1428571   0.3299144   0.0000000), wk =   0.0087464
        k(   62) = (   0.1428571   0.3299144   0.0822436), wk =   0.0174927
        k(   63) = (   0.1428571   0.3299144   0.1644872), wk =   0.0174927
        k(   64) = (   0.1428571   0.3299144   0.2467308), wk =   0.0174927
        k(   65) = (   0.1428571   0.4123930   0.0000000), wk =   0.0087464
        k(   66) = (   0.1428571   0.4123930   0.0822436), wk =   0.0174927
        k(   67) = (   0.1428571   0.4123930   0.1644872), wk =   0.0174927
        k(   68) = (   0.1428571   0.4123930   0.2467308), wk =   0.0174927
        k(   69) = (   0.1428571   0.4948717   0.0000000), wk =   0.0087464
        k(   70) = (   0.1428571   0.4948717   0.0822436), wk =   0.0174927
        k(   71) = (   0.1428571   0.4948717   0.1644872), wk =   0.0174927
        k(   72) = (   0.1428571   0.4948717   0.2467308), wk =   0.0174927
        k(   73) = (   0.1428571   0.5773503   0.0000000), wk =   0.0043732
        k(   74) = (   0.1428571   0.5773503   0.0822436), wk =   0.0087464
        k(   75) = (   0.1428571   0.5773503   0.1644872), wk =   0.0087464
        k(   76) = (   0.1428571   0.5773503   0.2467308), wk =   0.0087464
        k(   77) = (   0.2142857   0.3711537   0.0000000), wk =   0.0043732
        k(   78) = (   0.2142857   0.3711537   0.0822436), wk =   0.0087464
        k(   79) = (   0.2142857   0.3711537   0.1644872), wk =   0.0087464
        k(   80) = (   0.2142857   0.3711537   0.2467308), wk =   0.0087464
        k(   81) = (   0.2142857   0.4536324   0.0000000), wk =   0.0087464
        k(   82) = (   0.2142857   0.4536324   0.0822436), wk =   0.0174927
        k(   83) = (   0.2142857   0.4536324   0.1644872), wk =   0.0174927
        k(   84) = (   0.2142857   0.4536324   0.2467308), wk =   0.0174927
        k(   85) = (   0.2142857   0.5361110   0.0000000), wk =   0.0087464
        k(   86) = (   0.2142857   0.5361110   0.0822436), wk =   0.0174927
        k(   87) = (   0.2142857   0.5361110   0.1644872), wk =   0.0174927
        k(   88) = (   0.2142857   0.5361110   0.2467308), wk =   0.0174927
        k(   89) = (   0.2857143   0.4948717   0.0000000), wk =   0.0043732
        k(   90) = (   0.2857143   0.4948717   0.0822436), wk =   0.0087464
        k(   91) = (   0.2857143   0.4948717   0.1644872), wk =   0.0087464
        k(   92) = (   0.2857143   0.4948717   0.2467308), wk =   0.0087464
        k(   93) = (   0.2857143   0.5773503   0.0000000), wk =   0.0043732
        k(   94) = (   0.2857143   0.5773503   0.0822436), wk =   0.0087464
        k(   95) = (   0.2857143   0.5773503   0.1644872), wk =   0.0087464
        k(   96) = (   0.2857143   0.5773503   0.2467308), wk =   0.0087464

     Dense  grid:     8163 G-vectors     FFT dimensions: (  24,  24,  40)

     Smooth grid:     2029 G-vectors     FFT dimensions: (  15,  15,  25)

     Estimated max dynamical RAM per process >      22.80 MB

     Estimated total dynamical RAM >      45.61 MB
     Generating pointlists ...
     new r_m :   0.4125 (alat units)  1.6370 (a.u.) for type    1

     Initial potential from superposition of free atoms

     starting charge      15.9987, renormalised to      16.0000
     Starting wfcs are   12 randomized atomic wfcs

     total cpu time spent up to now is        1.0 secs

     Self-consistent Calculation

     iteration #  1     ecut=    30.00 Ry     beta= 0.50
     Davidson diagonalization with overlap
     ethr =  1.00E-02,  avg # of iterations =  3.7

     total cpu time spent up to now is        2.2 secs

     total energy              =    -110.97201345 Ry
     estimated scf accuracy    <       0.39265945 Ry

     total magnetization       =     4.98 Bohr mag/cell
     absolute magnetization    =     4.98 Bohr mag/cell

     iteration #  2     ecut=    30.00 Ry     beta= 0.50
     Davidson diagonalization with overlap
     ethr =  2.45E-03,  avg # of iterations =  1.4

     total cpu time spent up to now is        2.9 secs

     total energy              =    -111.14363090 Ry
     estimated scf accuracy    <       0.11107756 Ry

     total magnetization       =     3.99 Bohr mag/cell
     absolute magnetization    =     3.99 Bohr mag/cell

     iteration #  3     ecut=    30.00 Ry     beta= 0.50
     Davidson diagonalization with overlap
     ethr =  6.94E-04,  avg # of iterations =  1.3

     total cpu time spent up to now is        3.7 secs

     total energy              =    -111.20759057 Ry
     estimated scf accuracy    <       0.05209398 Ry

     total magnetization       =     2.41 Bohr mag/cell
     absolute magnetization    =     2.45 Bohr mag/cell

     iteration #  4     ecut=    30.00 Ry     beta= 0.50
     Davidson diagonalization with overlap
     ethr =  3.26E-04,  avg # of iterations =  1.1

     total cpu time spent up to now is        4.4 secs

     total energy              =    -111.26429323 Ry
     estimated scf accuracy    <       0.05349795 Ry

     total magnetization       =     0.59 Bohr mag/cell
     absolute magnetization    =     0.80 Bohr mag/cell

     iteration #  5     ecut=    30.00 Ry     beta= 0.50
     Davidson diagonalization with overlap
     ethr =  3.26E-04,  avg # of iterations =  1.0

     total cpu time spent up to now is        5.1 secs

     total energy              =    -111.27243154 Ry
     estimated scf accuracy    <       0.20502880 Ry

     total magnetization       =     0.40 Bohr mag/cell
     absolute magnetization    =     0.62 Bohr mag/cell

     iteration #  6     ecut=    30.00 Ry     beta= 0.50
     Davidson diagonalization with overlap
     ethr =  3.26E-04,  avg # of iterations =  1.0

     total cpu time spent up to now is        6.0 secs

     total energy              =    -111.28497908 Ry
     estimated scf accuracy    <       0.00356662 Ry

     total magnetization       =     0.36 Bohr mag/cell
     absolute magnetization    =     0.47 Bohr mag/cell

     iteration #  7     ecut=    30.00 Ry     beta= 0.50
     Davidson diagonalization with overlap
     ethr =  2.23E-05,  avg # of iterations =  2.6

     total cpu time spent up to now is        6.9 secs

     total energy              =    -111.28840544 Ry
     estimated scf accuracy    <       0.00066298 Ry

     total magnetization       =     0.07 Bohr mag/cell
     absolute magnetization    =     0.10 Bohr mag/cell

     iteration #  8     ecut=    30.00 Ry     beta= 0.50
     Davidson diagonalization with overlap
     ethr =  4.14E-06,  avg # of iterations =  3.0

     total cpu time spent up to now is        8.0 secs

     total energy              =    -111.28907337 Ry
     estimated scf accuracy    <       0.00006959 Ry

     total magnetization       =    -0.03 Bohr mag/cell
     absolute magnetization    =     0.03 Bohr mag/cell

     iteration #  9     ecut=    30.00 Ry     beta= 0.50
     Davidson diagonalization with overlap
     ethr =  4.35E-07,  avg # of iterations =  4.5

     total cpu time spent up to now is        9.3 secs

     total energy              =    -111.28912724 Ry
     estimated scf accuracy    <       0.00000816 Ry

     total magnetization       =    -0.00 Bohr mag/cell
     absolute magnetization    =     0.01 Bohr mag/cell

     iteration # 10     ecut=    30.00 Ry     beta= 0.50
     Davidson diagonalization with overlap
     ethr =  5.10E-08,  avg # of iterations =  5.7

     total cpu time spent up to now is       10.8 secs

     total energy              =    -111.28916139 Ry
     estimated scf accuracy    <       0.00001247 Ry

     total magnetization       =    -0.02 Bohr mag/cell
     absolute magnetization    =     0.02 Bohr mag/cell

     iteration # 11     ecut=    30.00 Ry     beta= 0.50
     Davidson diagonalization with overlap
     ethr =  5.10E-08,  avg # of iterations =  2.1

     total cpu time spent up to now is       11.8 secs

     total energy              =    -111.28917195 Ry
     estimated scf accuracy    <       0.00000013 Ry

     total magnetization       =    -0.00 Bohr mag/cell
     absolute magnetization    =     0.00 Bohr mag/cell

     iteration # 12     ecut=    30.00 Ry     beta= 0.50
     Davidson diagonalization with overlap
     ethr =  8.25E-10,  avg # of iterations =  6.8

     total cpu time spent up to now is       13.5 secs

     total energy              =    -111.28917262 Ry
     estimated scf accuracy    <       0.00000035 Ry

     total magnetization       =    -0.00 Bohr mag/cell
     absolute magnetization    =     0.00 Bohr mag/cell

     iteration # 13     ecut=    30.00 Ry     beta= 0.50
     Davidson diagonalization with overlap
     ethr =  8.25E-10,  avg # of iterations =  2.5

     Magnetic moment per site  (integrated on atomic sphere of radius R)
     atom   1 (R=0.412)  charge=  6.1979  magn=  0.0001
     atom   2 (R=0.412)  charge=  6.1980  magn=  0.0002

     total cpu time spent up to now is       14.5 secs

     End of self-consistent calculation

     Number of k-points >= 100: set verbosity='high' to print the bands.

     the Fermi energy is    24.4858 ev

!    total energy              =    -111.28917298 Ry
     estimated scf accuracy    <          4.8E-09 Ry
     smearing contrib. (-TS)   =       0.00056747 Ry
     internal energy E=F+TS    =    -111.28974045 Ry

     The total energy is F=E-TS. E is the sum of the following terms:
     one-electron contribution =      36.41316605 Ry
     hartree contribution      =       8.34622101 Ry
     xc contribution           =     -53.67034863 Ry
     ewald contribution        =    -102.37877887 Ry

     total magnetization       =     0.00 Bohr mag/cell
     absolute magnetization    =     0.00 Bohr mag/cell

     convergence has been achieved in  13 iterations

     Forces acting on atoms (cartesian axes, Ry/au):

     atom    1 type  1   force =     0.00000000   -0.00000000    0.00000000
     atom    2 type  1   force =     0.00000000    0.00000000    0.00000000

     Total force =     0.000000     Total SCF correction =     0.000000


     Computing stress (Cartesian axis) and pressure

          total   stress  (Ry/bohr**3)                   (kbar)     P=     2483.73
   0.01939923   0.00000000   0.00000000         2853.73        0.00        0.00
   0.00000000   0.01939923  -0.00000000            0.00     2853.73       -0.00
   0.00000000  -0.00000000   0.01185360            0.00       -0.00     1743.72

     Message from routine punch:
     Nothing written, as per user request (disk_io='none')

     init_run     :      0.73s CPU      0.81s WALL (       1 calls)
     electrons    :     12.44s CPU     13.43s WALL (       1 calls)
     forces       :      0.10s CPU      0.10s WALL (       1 calls)
     stress       :      0.47s CPU      0.48s WALL (       1 calls)

     Called by init_run:
     wfcinit      :      0.26s CPU      0.32s WALL (       1 calls)
     potinit      :      0.06s CPU      0.06s WALL (       1 calls)
     hinit0       :      0.38s CPU      0.38s WALL (       1 calls)

     Called by electrons:
     c_bands      :     10.26s CPU     11.11s WALL (      13 calls)
     sum_band     :      1.73s CPU      1.86s WALL (      13 calls)
     v_of_rho     :      0.22s CPU      0.23s WALL (      14 calls)
     newd         :      0.24s CPU      0.25s WALL (      14 calls)
     mix_rho      :      0.02s CPU      0.02s WALL (      13 calls)

     Called by c_bands:
     init_us_2    :      0.29s CPU      0.32s WALL (    5568 calls)
     cegterg      :      9.46s CPU     10.23s WALL (    2496 calls)

     Called by *egterg:
     cdiaghg      :      1.77s CPU      1.91s WALL (    9520 calls)
     h_psi        :      6.48s CPU      7.05s WALL (    9712 calls)
     s_psi        :      0.18s CPU      0.20s WALL (    9712 calls)
     g_psi        :      0.04s CPU      0.05s WALL (    7024 calls)

     Called by h_psi:
     h_psi:calbec :      0.44s CPU      0.48s WALL (    9712 calls)
     vloc_psi     :      5.72s CPU      6.23s WALL (    9712 calls)
     add_vuspsi   :      0.20s CPU      0.22s WALL (    9712 calls)

     General routines
     calbec       :      0.66s CPU      0.70s WALL (   15472 calls)
     fft          :      0.27s CPU      0.27s WALL (     388 calls)
     ffts         :      0.02s CPU      0.02s WALL (      54 calls)
     fftw         :      5.16s CPU      5.63s WALL (  200286 calls)
     interpolate  :      0.03s CPU      0.03s WALL (      28 calls)

     Parallel routines

     PWSCF        :     13.96s CPU     15.05s WALL


   This run was terminated on:   0:37:37  21Oct2025            

=------------------------------------------------------------------------------=
   JOB DONE.
=------------------------------------------------------------------------------=
