
     Program PWSCF v.7.4.1 starts on 21Oct2025 at 13: 8:35 

     This program is part of the open-source Quantum ESPRESSO suite
     for quantum simulation of materials; please cite
         "P. Giannozzi et al., J. Phys.:Condens. Matter 21 395502 (2009);
         "P. Giannozzi et al., J. Phys.:Condens. Matter 29 465901 (2017);
         "P. Giannozzi et al., J. Chem. Phys. 152 154105 (2020);
          URL http://www.quantum-espresso.org", 
     in publications or presentations arising from this work. More details at
     http://www.quantum-espresso.org/quote

     Parallel version (MPI), running on     2 processors

     MPI processes distributed on     1 nodes
     878 MiB available memory on the printing compute node when the environment starts

     Waiting for input...
     Reading input from standard input
Warning: card &CELL ignored
Warning: card / ignored

     Current dimensions of program PWSCF are:
     Max number of different atomic species (ntypx) = 10
     Max number of k-points (npk) =  40000
     Max angular momentum in pseudopotentials (lmaxx) =  4
     file O.pz-rrkjus.UPF: wavefunction(s)  2S renormalized
     Message from routine setup:
     using ibrav=0 with symmetry is DISCOURAGED, use correct ibrav instead

     R & G space division:  proc/nbgrp/npool/nimage =       2
     Subspace diagonalization in iterative solution of the eigenvalue problem:
     a serial algorithm will be used


     Parallelization info
     --------------------
     sticks:   dense  smooth     PW     G-vecs:    dense   smooth      PW
     Min         516     254     74                12286     4354     709
     Max         517     255     75                12287     4355     710
     Sum        1033     509    149                24573     8709    1419

     Using Slab Decomposition



     bravais-lattice index     =            0
     lattice parameter (alat)  =       7.3227  a.u.
     unit-cell volume          =     392.6555 (a.u.)^3
     number of atoms/cell      =            5
     number of atomic types    =            3
     number of electrons       =        44.00
     number of Kohn-Sham states=           22
     kinetic-energy cutoff     =      30.0000  Ry
     charge density cutoff     =     240.0000  Ry
     scf convergence threshold =      1.0E-07
     mixing beta               =       0.7000
     number of iterations used =            8  plain     mixing
     energy convergence thresh.=      1.0E-04
     force convergence thresh. =      1.0E-03
     Exchange-correlation= SLA  PZ   NOGX NOGC
                           (   1   1   0   0   0   0   0)
     nstep                     =           50


     celldm(1)=   7.322689  celldm(2)=   0.000000  celldm(3)=   0.000000
     celldm(4)=   0.000000  celldm(5)=   0.000000  celldm(6)=   0.000000

     crystal axes: (cart. coord. in units of alat)
               a(1) = (   1.000000   0.000000   0.000000 )  
               a(2) = (   0.000000   1.000000   0.000000 )  
               a(3) = (   0.000000   0.000000   1.000000 )  

     reciprocal axes: (cart. coord. in units 2 pi/alat)
               b(1) = (  1.000000  0.000000  0.000000 )  
               b(2) = (  0.000000  1.000000  0.000000 )  
               b(3) = (  0.000000  0.000000  1.000000 )  


     PseudoPot. # 1 for O  read from file:
     /home/bond/Software/QE/qe-7.4.1/pseudo/O.pz-rrkjus.UPF
     MD5 check sum: 24fb942a68ef5d262e498166c462ef4a
     Pseudo is Ultrasoft, Zval =  6.0
     Generated by new atomic code, or converted to UPF format
     Using radial grid of 1269 points,  4 beta functions with: 
                l(1) =   0
                l(2) =   0
                l(3) =   1
                l(4) =   1
     Q(r) pseudized with 0 coefficients 


     PseudoPot. # 2 for Pb read from file:
     /home/bond/Software/QE/qe-7.4.1/pseudo/Pb.pz-d-van.UPF
     MD5 check sum: 4e1e5920686a026ae26139ac417581ff
     Pseudo is Ultrasoft, Zval = 14.0
     Generated by new atomic code, or converted to UPF format
     Using radial grid of  899 points,  6 beta functions with: 
                l(1) =   0
                l(2) =   0
                l(3) =   1
                l(4) =   1
                l(5) =   2
                l(6) =   2
     Q(r) pseudized with  8 coefficients,  rinner =    1.000   1.000   1.000
                                                       1.000   1.000

     PseudoPot. # 3 for Ti read from file:
     /home/bond/Software/QE/qe-7.4.1/pseudo/Ti.pz-sp-van_ak.UPF
     MD5 check sum: 545d0e6e05332b8871a8093f427cb0ca
     Pseudo is Ultrasoft, Zval = 12.0
     Generated by new atomic code, or converted to UPF format
     Using radial grid of  851 points,  6 beta functions with: 
                l(1) =   0
                l(2) =   0
                l(3) =   1
                l(4) =   1
                l(5) =   2
                l(6) =   2
     Q(r) pseudized with  8 coefficients,  rinner =    1.000   1.000   1.000
                                                       1.000   1.000

     atomic species   valence    mass     pseudopotential
     O                 6.00    15.99900     O ( 1.00)
     Pb               14.00   207.20000     Pb( 1.00)
     Ti               12.00    47.86700     Ti( 1.00)

      8 Sym. Ops. (no inversion) found



   Cartesian axes

     site n.     atom                  positions (alat units)
         1        Pb     tau(   1) = (   0.0000000   0.0000000   0.0000000  )
         2        Ti     tau(   2) = (   0.5000000   0.5000000   0.5350013  )
         3        O      tau(   3) = (   0.0000000   0.5000000   0.5000000  )
         4        O      tau(   4) = (   0.5000000   0.0000000   0.5000000  )
         5        O      tau(   5) = (   0.5000000   0.5000000   0.0000000  )

     number of k points=     6
                       cart. coord. in units 2pi/alat
        k(    1) = (   0.1250000   0.1250000   0.1250000), wk =   0.2500000
        k(    2) = (   0.1250000   0.1250000   0.3750000), wk =   0.2500000
        k(    3) = (   0.1250000   0.3750000   0.3750000), wk =   0.5000000
        k(    4) = (   0.3750000   0.3750000   0.3750000), wk =   0.2500000
        k(    5) = (   0.3750000  -0.1250000   0.1250000), wk =   0.5000000
        k(    6) = (   0.3750000  -0.3750000   0.1250000), wk =   0.2500000

     Dense  grid:    24573 G-vectors     FFT dimensions: (  40,  40,  40)

     Smooth grid:     8709 G-vectors     FFT dimensions: (  25,  25,  25)

     Estimated max dynamical RAM per process >      51.19 MB

     Estimated total dynamical RAM >     102.38 MB

     Initial potential from superposition of free atoms

     starting charge      42.9982, renormalised to      44.0000
     Starting wfcs are   31 randomized atomic wfcs

     total cpu time spent up to now is        1.8 secs

     Self-consistent Calculation

     iteration #  1     ecut=    30.00 Ry     beta= 0.70
     Davidson diagonalization with overlap
     ethr =  1.00E-02,  avg # of iterations =  2.0

     total cpu time spent up to now is        2.2 secs

     total energy              =    -332.62604896 Ry
     estimated scf accuracy    <       1.08707818 Ry

     iteration #  2     ecut=    30.00 Ry     beta= 0.70
     Davidson diagonalization with overlap
     ethr =  2.47E-03,  avg # of iterations =  5.8

     total cpu time spent up to now is        2.7 secs

     total energy              =    -332.43088055 Ry
     estimated scf accuracy    <       3.80249361 Ry

     iteration #  3     ecut=    30.00 Ry     beta= 0.70
     Davidson diagonalization with overlap
     ethr =  2.47E-03,  avg # of iterations =  5.2

     total cpu time spent up to now is        3.2 secs

     total energy              =    -333.15637462 Ry
     estimated scf accuracy    <       0.20984754 Ry

     iteration #  4     ecut=    30.00 Ry     beta= 0.70
     Davidson diagonalization with overlap
     ethr =  4.77E-04,  avg # of iterations =  2.3

     total cpu time spent up to now is        3.6 secs

     total energy              =    -333.15524711 Ry
     estimated scf accuracy    <       0.05453558 Ry

     iteration #  5     ecut=    30.00 Ry     beta= 0.70
     Davidson diagonalization with overlap
     ethr =  1.24E-04,  avg # of iterations =  4.8

     total cpu time spent up to now is        4.0 secs

     total energy              =    -333.18166514 Ry
     estimated scf accuracy    <       0.02194623 Ry

     iteration #  6     ecut=    30.00 Ry     beta= 0.70
     Davidson diagonalization with overlap
     ethr =  4.99E-05,  avg # of iterations =  1.5

     total cpu time spent up to now is        4.5 secs

     total energy              =    -333.17869084 Ry
     estimated scf accuracy    <       0.01154862 Ry

     iteration #  7     ecut=    30.00 Ry     beta= 0.70
     Davidson diagonalization with overlap
     ethr =  2.62E-05,  avg # of iterations =  4.0

     total cpu time spent up to now is        5.0 secs

     total energy              =    -333.18089785 Ry
     estimated scf accuracy    <       0.00017863 Ry

     iteration #  8     ecut=    30.00 Ry     beta= 0.70
     Davidson diagonalization with overlap
     ethr =  4.06E-07,  avg # of iterations =  6.8

     total cpu time spent up to now is        5.5 secs

     total energy              =    -333.18115127 Ry
     estimated scf accuracy    <       0.00040456 Ry

     iteration #  9     ecut=    30.00 Ry     beta= 0.70
     Davidson diagonalization with overlap
     ethr =  4.06E-07,  avg # of iterations =  3.3

     total cpu time spent up to now is        6.0 secs

     total energy              =    -333.18114324 Ry
     estimated scf accuracy    <       0.00013734 Ry

     iteration # 10     ecut=    30.00 Ry     beta= 0.70
     Davidson diagonalization with overlap
     ethr =  3.12E-07,  avg # of iterations =  2.7

     total cpu time spent up to now is        6.4 secs

     total energy              =    -333.18114115 Ry
     estimated scf accuracy    <       0.00004153 Ry

     iteration # 11     ecut=    30.00 Ry     beta= 0.70
     Davidson diagonalization with overlap
     ethr =  9.44E-08,  avg # of iterations =  4.7

     total cpu time spent up to now is        6.9 secs

     total energy              =    -333.18115902 Ry
     estimated scf accuracy    <       0.00000883 Ry

     iteration # 12     ecut=    30.00 Ry     beta= 0.70
     Davidson diagonalization with overlap
     ethr =  2.01E-08,  avg # of iterations =  2.2

     total cpu time spent up to now is        7.3 secs

     total energy              =    -333.18115782 Ry
     estimated scf accuracy    <       0.00000476 Ry

     iteration # 13     ecut=    30.00 Ry     beta= 0.70
     Davidson diagonalization with overlap
     ethr =  1.08E-08,  avg # of iterations =  3.3

     total cpu time spent up to now is        7.7 secs

     total energy              =    -333.18115866 Ry
     estimated scf accuracy    <       0.00000016 Ry

     iteration # 14     ecut=    30.00 Ry     beta= 0.70
     Davidson diagonalization with overlap
     ethr =  3.60E-10,  avg # of iterations =  4.8

     total cpu time spent up to now is        8.3 secs

     End of self-consistent calculation

          k = 0.1250 0.1250 0.1250 (  1090 PWs)   bands (ev):

   -44.5543 -21.2361 -21.1592 -21.1581  -6.3240  -5.2798  -5.2053  -3.9770
    -3.9686  -3.9565  -3.7898  -3.7811   4.6437   7.2933   7.3342   8.0893
     9.0102   9.1030   9.7118   9.8492  10.0607  10.1765

          k = 0.1250 0.1250 0.3750 (  1095 PWs)   bands (ev):

   -44.5530 -21.2949 -21.1569 -21.1559  -5.8787  -5.1382  -5.0788  -4.0364
    -3.9724  -3.9516  -3.8794  -3.7608   3.8772   6.8267   7.2260   7.8629
     8.5033   8.6332   9.4360   9.9043  10.1898  10.9280

          k = 0.1250 0.3750 0.3750 (  1087 PWs)   bands (ev):

   -44.5517 -21.2912 -21.2128 -21.1543  -5.6651  -5.0429  -4.9209  -4.0098
    -3.9650  -3.9106  -3.8187  -3.6534   3.5313   6.6843   6.9728   7.1974
     7.5195   8.7309   9.3721   9.5357  10.0473  10.6872

          k = 0.3750 0.3750 0.3750 (  1082 PWs)   bands (ev):

   -44.5504 -21.2887 -21.2104 -21.2102  -5.3162  -5.1477  -5.0987  -3.9229
    -3.9129  -3.6330  -3.5655  -3.5429   4.1586   5.9046   5.9712   6.7044
     7.1161   7.1611   7.9928  10.6166  10.6732  10.7783

          k = 0.3750-0.1250 0.1250 (  1095 PWs)   bands (ev):

   -44.5530 -21.2339 -21.2165 -21.1565  -5.9324  -5.1415  -5.0459  -4.0323
    -3.9667  -3.9545  -3.8887  -3.7533   3.9097   6.8984   7.3695   7.8564
     8.4456   8.8014   9.2981   9.9127  10.0246  10.8508

          k = 0.3750-0.3750 0.1250 (  1087 PWs)   bands (ev):

   -44.5517 -21.2317 -21.2133 -21.2125  -5.7640  -4.9725  -4.8955  -4.0010
    -3.9618  -3.9014  -3.8151  -3.6883   3.5608   6.8482   6.8980   7.1606
     7.4657   8.6925   9.4956   9.5131  10.0283  10.7811

     highest occupied level (ev):    10.9280

!    total energy              =    -333.18115873 Ry
     estimated scf accuracy    <       0.00000007 Ry

     The total energy is the sum of the following terms:
     one-electron contribution =     -76.95893964 Ry
     hartree contribution      =      66.49167566 Ry
     xc contribution           =     -49.66854549 Ry
     ewald contribution        =    -273.04534926 Ry

     convergence has been achieved in  14 iterations

     Forces acting on atoms (cartesian axes, Ry/au):

     atom    1 type  2   force =     0.00000000    0.00000000    0.01533199
     atom    2 type  3   force =     0.00000000    0.00000000   -0.03544206
     atom    3 type  1   force =     0.00000000    0.00000000    0.00052026
     atom    4 type  1   force =     0.00000000    0.00000000    0.00052026
     atom    5 type  1   force =     0.00000000    0.00000000    0.01906956

     Total force =     0.019084     Total SCF correction =     0.000118


     Computing stress (Cartesian axis) and pressure

          total   stress  (Ry/bohr**3)                   (kbar)     P=       -2.29
  -0.00008181   0.00000000   0.00000000          -12.03        0.00        0.00
   0.00000000  -0.00008181   0.00000000            0.00      -12.03        0.00
   0.00000000   0.00000000   0.00011701            0.00        0.00       17.21


     BFGS Geometry Optimization
     Energy error            =      3.4E-04 Ry
     Gradient error          =      1.9E-02 Ry/Bohr

     number of scf cycles    =   1
     number of bfgs steps    =   0

     energy             new  =    -333.1811587263 Ry

     new trust radius        =       0.0190695559 bohr
     new conv_thr            =       0.0000001000 Ry


ATOMIC_POSITIONS (angstrom)
Pb               0.0000000000        0.0000000000        0.0000000000    0   0   0
Ti               1.9375000000        1.9375000000        2.0731300000    0   0   0
O                0.0000000000        1.9375000000        1.9377753079
O                1.9375000000        0.0000000000        1.9377753079
O                1.9375000000        1.9375000000        0.0100911744


     Message from routine punch:
     Nothing written, as per user request (disk_io='none')
     NEW-OLD atomic charge density approx. for the potential

     total cpu time spent up to now is        9.9 secs

     Self-consistent Calculation

     iteration #  1     ecut=    30.00 Ry     beta= 0.70
     Davidson diagonalization with overlap
     ethr =  1.00E-06,  avg # of iterations =  4.8

     total cpu time spent up to now is       10.5 secs

     total energy              =    -333.18143776 Ry
     estimated scf accuracy    <       0.00006501 Ry

     iteration #  2     ecut=    30.00 Ry     beta= 0.70
     Davidson diagonalization with overlap
     ethr =  1.48E-07,  avg # of iterations =  4.7

     total cpu time spent up to now is       11.2 secs

     total energy              =    -333.18144582 Ry
     estimated scf accuracy    <       0.00003577 Ry

     iteration #  3     ecut=    30.00 Ry     beta= 0.70
     Davidson diagonalization with overlap
     ethr =  8.13E-08,  avg # of iterations =  4.7

     total cpu time spent up to now is       11.6 secs

     total energy              =    -333.18145471 Ry
     estimated scf accuracy    <       0.00001520 Ry

     iteration #  4     ecut=    30.00 Ry     beta= 0.70
     Davidson diagonalization with overlap
     ethr =  3.45E-08,  avg # of iterations =  3.3

     total cpu time spent up to now is       12.1 secs

     total energy              =    -333.18145688 Ry
     estimated scf accuracy    <       0.00000056 Ry

     iteration #  5     ecut=    30.00 Ry     beta= 0.70
     Davidson diagonalization with overlap
     ethr =  1.28E-09,  avg # of iterations =  6.2

     total cpu time spent up to now is       12.6 secs

     total energy              =    -333.18145744 Ry
     estimated scf accuracy    <       0.00000105 Ry

     iteration #  6     ecut=    30.00 Ry     beta= 0.70
     Davidson diagonalization with overlap
     ethr =  1.28E-09,  avg # of iterations =  2.7

     total cpu time spent up to now is       13.0 secs

     total energy              =    -333.18145734 Ry
     estimated scf accuracy    <       0.00000047 Ry

     iteration #  7     ecut=    30.00 Ry     beta= 0.70
     Davidson diagonalization with overlap
     ethr =  1.06E-09,  avg # of iterations =  4.3

     total cpu time spent up to now is       13.4 secs

     End of self-consistent calculation

          k = 0.1250 0.1250 0.1250 (  1090 PWs)   bands (ev):

   -44.5696 -21.2401 -21.1748 -21.1737  -6.3250  -5.2757  -5.2089  -3.9738
    -3.9662  -3.9541  -3.7870  -3.7792   4.6464   7.2949   7.3308   8.0870
     9.0244   9.1130   9.7301   9.8511  10.0559  10.1800

          k = 0.1250 0.1250 0.3750 (  1095 PWs)   bands (ev):

   -44.5684 -21.2988 -21.1725 -21.1715  -5.8827  -5.1313  -5.0830  -4.0334
    -3.9691  -3.9494  -3.8776  -3.7578   3.8839   6.8274   7.2343   7.8567
     8.5044   8.6495   9.4349   9.9068  10.1850  10.9268

          k = 0.1250 0.3750 0.3750 (  1087 PWs)   bands (ev):

   -44.5671 -21.2952 -21.2283 -21.1699  -5.6686  -5.0366  -4.9237  -4.0068
    -3.9620  -3.9079  -3.8162  -3.6523   3.5355   6.6932   6.9670   7.1967
     7.5182   8.7275   9.3861   9.5326  10.0523  10.6919

          k = 0.3750 0.3750 0.3750 (  1082 PWs)   bands (ev):

   -44.5658 -21.2926 -21.2259 -21.2257  -5.3138  -5.1464  -5.1017  -3.9196
    -3.9107  -3.6295  -3.5631  -3.5425   4.1616   5.9120   5.9710   6.7026
     7.1150   7.1545   7.9969  10.6257  10.6796  10.7752

          k = 0.3750-0.1250 0.1250 (  1095 PWs)   bands (ev):

   -44.5684 -21.2380 -21.2319 -21.1721  -5.9312  -5.1393  -5.0496  -4.0297
    -3.9640  -3.9519  -3.8859  -3.7514   3.9125   6.8947   7.3710   7.8564
     8.4468   8.8021   9.3103   9.9168  10.0335  10.8555

          k = 0.3750-0.3750 0.1250 (  1087 PWs)   bands (ev):

   -44.5671 -21.2359 -21.2287 -21.2280  -5.7580  -4.9756  -4.8995  -3.9988
    -3.9592  -3.8996  -3.8131  -3.6838   3.5613   6.8451   6.8962   7.1700
     7.4751   8.6934   9.4980   9.5117  10.0298  10.7776

     highest occupied level (ev):    10.9268

!    total energy              =    -333.18145745 Ry
     estimated scf accuracy    <       0.00000002 Ry

     The total energy is the sum of the following terms:
     one-electron contribution =     -76.84338136 Ry
     hartree contribution      =      66.42990457 Ry
     xc contribution           =     -49.66422631 Ry
     ewald contribution        =    -273.10375435 Ry

     convergence has been achieved in   7 iterations

     Forces acting on atoms (cartesian axes, Ry/au):

     atom    1 type  2   force =     0.00000000    0.00000000    0.01564105
     atom    2 type  3   force =     0.00000000    0.00000000   -0.03209086
     atom    3 type  1   force =     0.00000000    0.00000000    0.00219907
     atom    4 type  1   force =     0.00000000    0.00000000    0.00219907
     atom    5 type  1   force =     0.00000000    0.00000000    0.01205167

     Total force =     0.012446     Total SCF correction =     0.000044


     Computing stress (Cartesian axis) and pressure

          total   stress  (Ry/bohr**3)                   (kbar)     P=       -4.72
  -0.00008751   0.00000000   0.00000000          -12.87        0.00        0.00
   0.00000000  -0.00008751   0.00000000            0.00      -12.87        0.00
   0.00000000   0.00000000   0.00007879            0.00        0.00       11.59

     Energy error            =      3.0E-04 Ry
     Gradient error          =      1.2E-02 Ry/Bohr

     number of scf cycles    =   2
     number of bfgs steps    =   1

     energy             old  =    -333.1811587263 Ry
     energy             new  =    -333.1814574451 Ry

     CASE: energy            _new < energy            _old

     new trust radius        =       0.0209765114 bohr
     new conv_thr            =       0.0000000030 Ry


ATOMIC_POSITIONS (angstrom)
Pb               0.0000000000        0.0000000000        0.0000000000    0   0   0
Ti               1.9375000000        1.9375000000        2.0731300000    0   0   0
O                0.0000000000        1.9375000000        1.9396677535
O                1.9375000000        0.0000000000        1.9396677535
O                1.9375000000        1.9375000000        0.0211914662


     Message from routine punch:
     Nothing written, as per user request (disk_io='none')
     NEW-OLD atomic charge density approx. for the potential

     total cpu time spent up to now is       14.9 secs

     Self-consistent Calculation

     iteration #  1     ecut=    30.00 Ry     beta= 0.70
     Davidson diagonalization with overlap
     ethr =  1.00E-06,  avg # of iterations =  5.2

     total cpu time spent up to now is       15.5 secs

     total energy              =    -333.18163154 Ry
     estimated scf accuracy    <       0.00008638 Ry

     iteration #  2     ecut=    30.00 Ry     beta= 0.70
     Davidson diagonalization with overlap
     ethr =  1.96E-07,  avg # of iterations =  4.8

     total cpu time spent up to now is       15.9 secs

     total energy              =    -333.18163666 Ry
     estimated scf accuracy    <       0.00007750 Ry

     iteration #  3     ecut=    30.00 Ry     beta= 0.70
     Davidson diagonalization with overlap
     ethr =  1.76E-07,  avg # of iterations =  4.7

     total cpu time spent up to now is       16.4 secs

     total energy              =    -333.18165535 Ry
     estimated scf accuracy    <       0.00001509 Ry

     iteration #  4     ecut=    30.00 Ry     beta= 0.70
     Davidson diagonalization with overlap
     ethr =  3.43E-08,  avg # of iterations =  3.8

     total cpu time spent up to now is       16.9 secs

     total energy              =    -333.18165757 Ry
     estimated scf accuracy    <       0.00000073 Ry

     iteration #  5     ecut=    30.00 Ry     beta= 0.70
     Davidson diagonalization with overlap
     ethr =  1.65E-09,  avg # of iterations =  5.2

     total cpu time spent up to now is       17.3 secs

     total energy              =    -333.18165810 Ry
     estimated scf accuracy    <       0.00000063 Ry

     iteration #  6     ecut=    30.00 Ry     beta= 0.70
     Davidson diagonalization with overlap
     ethr =  1.43E-09,  avg # of iterations =  2.3

     total cpu time spent up to now is       17.7 secs

     total energy              =    -333.18165805 Ry
     estimated scf accuracy    <       0.00000027 Ry

     iteration #  7     ecut=    30.00 Ry     beta= 0.70
     Davidson diagonalization with overlap
     ethr =  6.17E-10,  avg # of iterations =  4.3

     total cpu time spent up to now is       18.2 secs

     total energy              =    -333.18165813 Ry
     estimated scf accuracy    <       0.00000003 Ry

     iteration #  8     ecut=    30.00 Ry     beta= 0.70
     Davidson diagonalization with overlap
     ethr =  7.35E-11,  avg # of iterations =  2.5

     total cpu time spent up to now is       18.6 secs

     total energy              =    -333.18165813 Ry
     estimated scf accuracy    <       0.00000001 Ry

     iteration #  9     ecut=    30.00 Ry     beta= 0.70
     Davidson diagonalization with overlap
     ethr =  2.62E-11,  avg # of iterations =  4.8

     total cpu time spent up to now is       19.1 secs

     total energy              =    -333.18165814 Ry
     estimated scf accuracy    <          3.9E-09 Ry

     iteration # 10     ecut=    30.00 Ry     beta= 0.70
     Davidson diagonalization with overlap
     ethr =  8.95E-12,  avg # of iterations =  2.7

     total cpu time spent up to now is       19.7 secs

     End of self-consistent calculation

          k = 0.1250 0.1250 0.1250 (  1090 PWs)   bands (ev):

   -44.5859 -21.2450 -21.1913 -21.1903  -6.3262  -5.2718  -5.2131  -3.9703
    -3.9636  -3.9514  -3.7840  -3.7772   4.6491   7.2962   7.3270   8.0853
     9.0397   9.1219   9.7517   9.8541  10.0502  10.1820

          k = 0.1250 0.1250 0.3750 (  1095 PWs)   bands (ev):

   -44.5847 -21.3036 -21.1891 -21.1881  -5.8872  -5.1245  -5.0879  -4.0301
    -3.9655  -3.9469  -3.8756  -3.7547   3.8910   6.8277   7.2437   7.8510
     8.5043   8.6657   9.4335   9.9104  10.1795  10.9249

          k = 0.1250 0.3750 0.3750 (  1087 PWs)   bands (ev):

   -44.5834 -21.3000 -21.2448 -21.1865  -5.6726  -5.0304  -4.9266  -4.0036
    -3.9588  -3.9050  -3.8135  -3.6510   3.5399   6.7032   6.9592   7.1956
     7.5163   8.7234   9.3998   9.5292  10.0569  10.6972

          k = 0.3750 0.3750 0.3750 (  1082 PWs)   bands (ev):

   -44.5821 -21.2975 -21.2424 -21.2422  -5.3117  -5.1448  -5.1050  -3.9162
    -3.9083  -3.6259  -3.5605  -3.5419   4.1643   5.9191   5.9702   6.7013
     7.1116   7.1457   8.0006  10.6353  10.6858  10.7723

          k = 0.3750-0.1250 0.1250 (  1095 PWs)   bands (ev):

   -44.5847 -21.2486 -21.2427 -21.1887  -5.9303  -5.1375  -5.0535  -4.0269
    -3.9610  -3.9492  -3.8829  -3.7492   3.9153   6.8900   7.3718   7.8557
     8.4477   8.8013   9.3232   9.9214  10.0434  10.8601

          k = 0.3750-0.3750 0.1250 (  1087 PWs)   bands (ev):

   -44.5834 -21.2456 -21.2444 -21.2403  -5.7519  -4.9790  -4.9038  -3.9965
    -3.9564  -3.8976  -3.8108  -3.6792   3.5616   6.8417   6.8929   7.1786
     7.4837   8.6932   9.4992   9.5103  10.0320  10.7738

     highest occupied level (ev):    10.9249

!    total energy              =    -333.18165814 Ry
     estimated scf accuracy    <          1.0E-09 Ry

     The total energy is the sum of the following terms:
     one-electron contribution =     -76.73931308 Ry
     hartree contribution      =      66.37434747 Ry
     xc contribution           =     -49.66023711 Ry
     ewald contribution        =    -273.15645541 Ry

     convergence has been achieved in  10 iterations

     Forces acting on atoms (cartesian axes, Ry/au):

     atom    1 type  2   force =     0.00000000    0.00000000    0.01570171
     atom    2 type  3   force =     0.00000000    0.00000000   -0.02872029
     atom    3 type  1   force =     0.00000000    0.00000000    0.00385658
     atom    4 type  1   force =     0.00000000    0.00000000    0.00385658
     atom    5 type  1   force =     0.00000000    0.00000000    0.00530542

     Total force =     0.007609     Total SCF correction =     0.000008


     Computing stress (Cartesian axis) and pressure

          total   stress  (Ry/bohr**3)                   (kbar)     P=       -6.88
  -0.00009095   0.00000000   0.00000000          -13.38        0.00        0.00
   0.00000000  -0.00009095   0.00000000            0.00      -13.38        0.00
   0.00000000   0.00000000   0.00004168            0.00        0.00        6.13

     Energy error            =      2.0E-04 Ry
     Gradient error          =      5.3E-03 Ry/Bohr

     number of scf cycles    =   3
     number of bfgs steps    =   2

     energy             old  =    -333.1814574451 Ry
     energy             new  =    -333.1816581354 Ry

     CASE: energy            _new < energy            _old

     new trust radius        =       0.0254281031 bohr
     new conv_thr            =       0.0000000020 Ry


ATOMIC_POSITIONS (angstrom)
Pb               0.0000000000        0.0000000000        0.0000000000    0   0   0
Ti               1.9375000000        1.9375000000        2.0731300000    0   0   0
O                0.0000000000        1.9375000000        1.9448830445
O                1.9375000000        0.0000000000        1.9448830445
O                1.9375000000        1.9375000000        0.0346474389


     Message from routine punch:
     Nothing written, as per user request (disk_io='none')
     NEW-OLD atomic charge density approx. for the potential

     total cpu time spent up to now is       21.5 secs

     Self-consistent Calculation

     iteration #  1     ecut=    30.00 Ry     beta= 0.70
     Davidson diagonalization with overlap
     ethr =  1.00E-06,  avg # of iterations =  5.7

     total cpu time spent up to now is       22.2 secs

     total energy              =    -333.18176993 Ry
     estimated scf accuracy    <       0.00012189 Ry

     iteration #  2     ecut=    30.00 Ry     beta= 0.70
     Davidson diagonalization with overlap
     ethr =  2.77E-07,  avg # of iterations =  4.5

     total cpu time spent up to now is       22.8 secs

     total energy              =    -333.18177520 Ry
     estimated scf accuracy    <       0.00009082 Ry

     iteration #  3     ecut=    30.00 Ry     beta= 0.70
     Davidson diagonalization with overlap
     ethr =  2.06E-07,  avg # of iterations =  4.5

     total cpu time spent up to now is       23.3 secs

     total energy              =    -333.18179774 Ry
     estimated scf accuracy    <       0.00002587 Ry

     iteration #  4     ecut=    30.00 Ry     beta= 0.70
     Davidson diagonalization with overlap
     ethr =  5.88E-08,  avg # of iterations =  3.5

     total cpu time spent up to now is       24.0 secs

     total energy              =    -333.18180202 Ry
     estimated scf accuracy    <       0.00000109 Ry

     iteration #  5     ecut=    30.00 Ry     beta= 0.70
     Davidson diagonalization with overlap
     ethr =  2.47E-09,  avg # of iterations =  5.7

     total cpu time spent up to now is       24.8 secs

     total energy              =    -333.18180298 Ry
     estimated scf accuracy    <       0.00000165 Ry

     iteration #  6     ecut=    30.00 Ry     beta= 0.70
     Davidson diagonalization with overlap
     ethr =  2.47E-09,  avg # of iterations =  2.7

     total cpu time spent up to now is       25.4 secs

     total energy              =    -333.18180211 Ry
     estimated scf accuracy    <       0.00000067 Ry

     iteration #  7     ecut=    30.00 Ry     beta= 0.70
     Davidson diagonalization with overlap
     ethr =  1.52E-09,  avg # of iterations =  4.5

     total cpu time spent up to now is       26.1 secs

     total energy              =    -333.18180229 Ry
     estimated scf accuracy    <       0.00000005 Ry

     iteration #  8     ecut=    30.00 Ry     beta= 0.70
     Davidson diagonalization with overlap
     ethr =  1.14E-10,  avg # of iterations =  2.5

     total cpu time spent up to now is       26.7 secs

     total energy              =    -333.18180304 Ry
     estimated scf accuracy    <       0.00000002 Ry

     iteration #  9     ecut=    30.00 Ry     beta= 0.70
     Davidson diagonalization with overlap
     ethr =  3.85E-11,  avg # of iterations =  4.8

     total cpu time spent up to now is       27.2 secs

     total energy              =    -333.18180304 Ry
     estimated scf accuracy    <          5.4E-09 Ry

     iteration # 10     ecut=    30.00 Ry     beta= 0.70
     Davidson diagonalization with overlap
     ethr =  1.24E-11,  avg # of iterations =  2.3

     total cpu time spent up to now is       27.7 secs

     End of self-consistent calculation

          k = 0.1250 0.1250 0.1250 (  1090 PWs)   bands (ev):

   -44.6030 -21.2500 -21.2088 -21.2078  -6.3273  -5.2674  -5.2192  -3.9668
    -3.9611  -3.9489  -3.7811  -3.7753   4.6520   7.2982   7.3227   8.0850
     9.0582   9.1308   9.7812   9.8596  10.0418  10.1815

          k = 0.1250 0.1250 0.3750 (  1095 PWs)   bands (ev):

   -44.6017 -21.3084 -21.2066 -21.2056  -5.8929  -5.1160  -5.0949  -4.0268
    -3.9620  -3.9445  -3.8737  -3.7516   3.8992   6.8291   7.2573   7.8462
     8.5012   8.6837   9.4308   9.9160  10.1718  10.9210

          k = 0.1250 0.3750 0.3750 (  1087 PWs)   bands (ev):

   -44.6005 -21.3048 -21.2622 -21.2040  -5.6780  -5.0231  -4.9297  -4.0003
    -3.9557  -3.9020  -3.8108  -3.6501   3.5445   6.7170   6.9473   7.1945
     7.5134   8.7179   9.4143   9.5246  10.0611  10.7042

          k = 0.3750 0.3750 0.3750 (  1082 PWs)   bands (ev):

   -44.5992 -21.3023 -21.2599 -21.2596  -5.3092  -5.1424  -5.1091  -3.9126
    -3.9059  -3.6221  -3.5577  -3.5416   4.1667   5.9269   5.9682   6.7018
     7.1049   7.1324   8.0043  10.6468  10.6923  10.7691

          k = 0.3750-0.1250 0.1250 (  1095 PWs)   bands (ev):

   -44.6018 -21.2660 -21.2477 -21.2062  -5.9288  -5.1359  -5.0585  -4.0242
    -3.9581  -3.9464  -3.8796  -3.7471   3.9183   6.8834   7.3711   7.8550
     8.4493   8.7977   9.3383   9.9274  10.0565  10.8650

          k = 0.3750-0.3750 0.1250 (  1087 PWs)   bands (ev):

   -44.6005 -21.2629 -21.2619 -21.2455  -5.7438  -4.9832  -4.9092  -3.9942
    -3.9535  -3.8955  -3.8085  -3.6742   3.5612   6.8374   6.8877   7.1865
     7.4913   8.6928   9.4985   9.5088  10.0356  10.7685

     highest occupied level (ev):    10.9210

!    total energy              =    -333.18180229 Ry
     estimated scf accuracy    <          1.5E-09 Ry

     The total energy is the sum of the following terms:
     one-electron contribution =     -76.64709112 Ry
     hartree contribution      =      66.32403677 Ry
     xc contribution           =     -49.65627117 Ry
     ewald contribution        =    -273.20247677 Ry

     convergence has been achieved in  10 iterations

     Forces acting on atoms (cartesian axes, Ry/au):

     atom    1 type  2   force =     0.00000000    0.00000000    0.01557268
     atom    2 type  3   force =     0.00000000    0.00000000   -0.02518018
     atom    3 type  1   force =     0.00000000    0.00000000    0.00546552
     atom    4 type  1   force =     0.00000000    0.00000000    0.00546552
     atom    5 type  1   force =     0.00000000    0.00000000   -0.00132355

     Total force =     0.007842     Total SCF correction =     0.000006


     Computing stress (Cartesian axis) and pressure

          total   stress  (Ry/bohr**3)                   (kbar)     P=       -9.25
  -0.00009500   0.00000000   0.00000000          -13.98        0.00        0.00
   0.00000000  -0.00009500   0.00000000            0.00      -13.98        0.00
   0.00000000   0.00000000   0.00000146            0.00        0.00        0.22

     Energy error            =      1.4E-04 Ry
     Gradient error          =      5.5E-03 Ry/Bohr

     number of scf cycles    =   4
     number of bfgs steps    =   3

     energy             old  =    -333.1816581354 Ry
     energy             new  =    -333.1818022918 Ry

     CASE: energy            _new < energy            _old

     new trust radius        =       0.0178752921 bohr
     new conv_thr            =       0.0000000014 Ry


ATOMIC_POSITIONS (angstrom)
Pb               0.0000000000        0.0000000000        0.0000000000    0   0   0
Ti               1.9375000000        1.9375000000        2.0731300000    0   0   0
O                0.0000000000        1.9375000000        1.9521877609
O                1.9375000000        0.0000000000        1.9521877609
O                1.9375000000        1.9375000000        0.0441066361


     Message from routine punch:
     Nothing written, as per user request (disk_io='none')
     NEW-OLD atomic charge density approx. for the potential

     total cpu time spent up to now is       29.7 secs

     Self-consistent Calculation

     iteration #  1     ecut=    30.00 Ry     beta= 0.70
     Davidson diagonalization with overlap
     ethr =  1.00E-06,  avg # of iterations =  5.3

     total cpu time spent up to now is       30.3 secs

     total energy              =    -333.18189712 Ry
     estimated scf accuracy    <       0.00007086 Ry

     iteration #  2     ecut=    30.00 Ry     beta= 0.70
     Davidson diagonalization with overlap
     ethr =  1.61E-07,  avg # of iterations =  4.5

     total cpu time spent up to now is       31.0 secs

     total energy              =    -333.18189947 Ry
     estimated scf accuracy    <       0.00003729 Ry

     iteration #  3     ecut=    30.00 Ry     beta= 0.70
     Davidson diagonalization with overlap
     ethr =  8.48E-08,  avg # of iterations =  4.5

     total cpu time spent up to now is       31.8 secs

     total energy              =    -333.18190937 Ry
     estimated scf accuracy    <       0.00002251 Ry

     iteration #  4     ecut=    30.00 Ry     beta= 0.70
     Davidson diagonalization with overlap
     ethr =  5.11E-08,  avg # of iterations =  3.0

     total cpu time spent up to now is       32.3 secs

     total energy              =    -333.18191106 Ry
     estimated scf accuracy    <       0.00000231 Ry

     iteration #  5     ecut=    30.00 Ry     beta= 0.70
     Davidson diagonalization with overlap
     ethr =  5.24E-09,  avg # of iterations =  5.0

     total cpu time spent up to now is       33.1 secs

     total energy              =    -333.18191292 Ry
     estimated scf accuracy    <       0.00000267 Ry

     iteration #  6     ecut=    30.00 Ry     beta= 0.70
     Davidson diagonalization with overlap
     ethr =  5.24E-09,  avg # of iterations =  1.2

     total cpu time spent up to now is       33.5 secs

     total energy              =    -333.18191256 Ry
     estimated scf accuracy    <       0.00000162 Ry

     iteration #  7     ecut=    30.00 Ry     beta= 0.70
     Davidson diagonalization with overlap
     ethr =  3.68E-09,  avg # of iterations =  3.2

     total cpu time spent up to now is       33.9 secs

     total energy              =    -333.18191278 Ry
     estimated scf accuracy    <       0.00000011 Ry

     iteration #  8     ecut=    30.00 Ry     beta= 0.70
     Davidson diagonalization with overlap
     ethr =  2.59E-10,  avg # of iterations =  4.8

     total cpu time spent up to now is       34.4 secs

     total energy              =    -333.18191282 Ry
     estimated scf accuracy    <          2.7E-09 Ry

     iteration #  9     ecut=    30.00 Ry     beta= 0.70
     Davidson diagonalization with overlap
     ethr =  6.18E-12,  avg # of iterations =  5.8

     total cpu time spent up to now is       34.9 secs

     total energy              =    -333.18191282 Ry
     estimated scf accuracy    <          4.8E-09 Ry

     iteration # 10     ecut=    30.00 Ry     beta= 0.70
     Davidson diagonalization with overlap
     ethr =  6.18E-12,  avg # of iterations =  3.0

     total cpu time spent up to now is       35.3 secs

     End of self-consistent calculation

          k = 0.1250 0.1250 0.1250 (  1090 PWs)   bands (ev):

   -44.6135 -21.2529 -21.2198 -21.2188  -6.3280  -5.2649  -5.2248  -3.9647
    -3.9596  -3.9473  -3.7794  -3.7742   4.6538   7.3002   7.3201   8.0863
     9.0713   9.1356   9.8055   9.8653  10.0339  10.1774

          k = 0.1250 0.1250 0.3750 (  1095 PWs)   bands (ev):

   -44.6122 -21.3113 -21.2176 -21.2166  -5.8974  -5.1100  -5.1013  -4.0247
    -3.9598  -3.9431  -3.8726  -3.7497   3.9051   6.8309   7.2701   7.8452
     8.4953   8.6952   9.4273   9.9215  10.1649  10.9164

          k = 0.1250 0.3750 0.3750 (  1087 PWs)   bands (ev):

   -44.6109 -21.3077 -21.2732 -21.2150  -5.6824  -5.0183  -4.9319  -3.9983
    -3.9538  -3.9001  -3.8091  -3.6497   3.5473   6.7287   6.9358   7.1939
     7.5108   8.7133   9.4226   9.5204  10.0631  10.7094

          k = 0.3750 0.3750 0.3750 (  1082 PWs)   bands (ev):

   -44.6097 -21.3052 -21.2708 -21.2706  -5.3075  -5.1406  -5.1124  -3.9105
    -3.9046  -3.6198  -3.5558  -3.5414   4.1674   5.9317   5.9654   6.7040
     7.0969   7.1192   8.0064  10.6549  10.6957  10.7668

          k = 0.3750-0.1250 0.1250 (  1095 PWs)   bands (ev):

   -44.6122 -21.2769 -21.2507 -21.2171  -5.9275  -5.1358  -5.0624  -4.0226
    -3.9564  -3.9448  -3.8774  -3.7458   3.9200   6.8775   7.3691   7.8548
     8.4508   8.7926   9.3481   9.9318  10.0666  10.8677

          k = 0.3750-0.3750 0.1250 (  1087 PWs)   bands (ev):

   -44.6110 -21.2738 -21.2729 -21.2485  -5.7375  -4.9867  -4.9135  -3.9930
    -3.9518  -3.8942  -3.8070  -3.6709   3.5601   6.8340   6.8825   7.1894
     7.4937   8.6921   9.4957   9.5076  10.0389  10.7640

     highest occupied level (ev):    10.9164

!    total energy              =    -333.18191282 Ry
     estimated scf accuracy    <          1.4E-09 Ry

     The total energy is the sum of the following terms:
     one-electron contribution =     -76.61521568 Ry
     hartree contribution      =      66.30527448 Ry
     xc contribution           =     -49.65430223 Ry
     ewald contribution        =    -273.21766939 Ry

     convergence has been achieved in  10 iterations

     Forces acting on atoms (cartesian axes, Ry/au):

     atom    1 type  2   force =     0.00000000    0.00000000    0.01516026
     atom    2 type  3   force =     0.00000000    0.00000000   -0.02300189
     atom    3 type  1   force =     0.00000000    0.00000000    0.00609620
     atom    4 type  1   force =     0.00000000    0.00000000    0.00609620
     atom    5 type  1   force =     0.00000000    0.00000000   -0.00435077

     Total force =     0.009657     Total SCF correction =     0.000015


     Computing stress (Cartesian axis) and pressure

          total   stress  (Ry/bohr**3)                   (kbar)     P=      -10.52
  -0.00009622   0.00000000   0.00000000          -14.15        0.00        0.00
   0.00000000  -0.00009622   0.00000000            0.00      -14.15        0.00
   0.00000000   0.00000000  -0.00002220            0.00        0.00       -3.27

     Energy error            =      1.1E-04 Ry
     Gradient error          =      6.1E-03 Ry/Bohr

     number of scf cycles    =   5
     number of bfgs steps    =   4

     energy             old  =    -333.1818022918 Ry
     energy             new  =    -333.1819128187 Ry

     CASE: energy            _new < energy            _old

     new trust radius        =       0.0196628213 bohr
     new conv_thr            =       0.0000000011 Ry


ATOMIC_POSITIONS (angstrom)
Pb               0.0000000000        0.0000000000        0.0000000000    0   0   0
Ti               1.9375000000        1.9375000000        2.0731300000    0   0   0
O                0.0000000000        1.9375000000        1.9625928778
O                1.9375000000        0.0000000000        1.9625928778
O                1.9375000000        1.9375000000        0.0538933303


     Message from routine punch:
     Nothing written, as per user request (disk_io='none')
     NEW-OLD atomic charge density approx. for the potential

     total cpu time spent up to now is       37.2 secs

     Self-consistent Calculation

     iteration #  1     ecut=    30.00 Ry     beta= 0.70
     Davidson diagonalization with overlap
     ethr =  1.00E-06,  avg # of iterations =  5.7

     total cpu time spent up to now is       37.8 secs

     total energy              =    -333.18204210 Ry
     estimated scf accuracy    <       0.00009601 Ry

     iteration #  2     ecut=    30.00 Ry     beta= 0.70
     Davidson diagonalization with overlap
     ethr =  2.18E-07,  avg # of iterations =  4.2

     total cpu time spent up to now is       38.4 secs

     total energy              =    -333.18205024 Ry
     estimated scf accuracy    <       0.00002629 Ry

     iteration #  3     ecut=    30.00 Ry     beta= 0.70
     Davidson diagonalization with overlap
     ethr =  5.97E-08,  avg # of iterations =  5.5

     total cpu time spent up to now is       39.1 secs

     total energy              =    -333.18205487 Ry
     estimated scf accuracy    <       0.00003160 Ry

     iteration #  4     ecut=    30.00 Ry     beta= 0.70
     Davidson diagonalization with overlap
     ethr =  5.97E-08,  avg # of iterations =  4.2

     total cpu time spent up to now is       39.7 secs

     total energy              =    -333.18206058 Ry
     estimated scf accuracy    <       0.00000024 Ry

     iteration #  5     ecut=    30.00 Ry     beta= 0.70
     Davidson diagonalization with overlap
     ethr =  5.42E-10,  avg # of iterations =  7.0

     total cpu time spent up to now is       40.4 secs

     total energy              =    -333.18206096 Ry
     estimated scf accuracy    <       0.00000077 Ry

     iteration #  6     ecut=    30.00 Ry     beta= 0.70
     Davidson diagonalization with overlap
     ethr =  5.42E-10,  avg # of iterations =  4.2

     total cpu time spent up to now is       40.9 secs

     total energy              =    -333.18206099 Ry
     estimated scf accuracy    <       0.00000014 Ry

     iteration #  7     ecut=    30.00 Ry     beta= 0.70
     Davidson diagonalization with overlap
     ethr =  3.26E-10,  avg # of iterations =  3.8

     total cpu time spent up to now is       41.4 secs

     total energy              =    -333.18206100 Ry
     estimated scf accuracy    <       0.00000001 Ry

     iteration #  8     ecut=    30.00 Ry     beta= 0.70
     Davidson diagonalization with overlap
     ethr =  3.31E-11,  avg # of iterations =  5.3

     total cpu time spent up to now is       41.9 secs

     total energy              =    -333.18206101 Ry
     estimated scf accuracy    <          8.2E-09 Ry

     iteration #  9     ecut=    30.00 Ry     beta= 0.70
     Davidson diagonalization with overlap
     ethr =  1.86E-11,  avg # of iterations =  2.3

     total cpu time spent up to now is       42.4 secs

     total energy              =    -333.18206101 Ry
     estimated scf accuracy    <          2.1E-09 Ry

     iteration # 10     ecut=    30.00 Ry     beta= 0.70
     Davidson diagonalization with overlap
     ethr =  4.70E-12,  avg # of iterations =  4.8

     total cpu time spent up to now is       42.9 secs

     total energy              =    -333.18206101 Ry
     estimated scf accuracy    <          1.3E-09 Ry

     iteration # 11     ecut=    30.00 Ry     beta= 0.70
     Davidson diagonalization with overlap
     ethr =  3.01E-12,  avg # of iterations =  1.2

     total cpu time spent up to now is       43.4 secs

     End of self-consistent calculation

          k = 0.1250 0.1250 0.1250 (  1090 PWs)   bands (ev):

   -44.6235 -21.2560 -21.2304 -21.2294  -6.3289  -5.2628  -5.2317  -3.9625
    -3.9581  -3.9457  -3.7778  -3.7729   4.6557   7.3026   7.3179   8.0886
     9.0845   9.1394   9.8330   9.8722  10.0241  10.1699

          k = 0.1250 0.1250 0.3750 (  1095 PWs)   bands (ev):

   -44.6223 -21.3143 -21.2282 -21.2273  -5.9026  -5.1091  -5.1041  -4.0224
    -3.9575  -3.9416  -3.8712  -3.7477   3.9113   6.8333   7.2851   7.8454
     8.4865   8.7060   9.4223   9.9280  10.1567  10.9106

          k = 0.1250 0.3750 0.3750 (  1087 PWs)   bands (ev):

   -44.6210 -21.3107 -21.2839 -21.2256  -5.6876  -5.0140  -4.9342  -3.9961
    -3.9518  -3.8981  -3.8072  -3.6492   3.5500   6.7421   6.9214   7.1932
     7.5076   8.7078   9.4293   9.5155  10.0646  10.7146

          k = 0.3750 0.3750 0.3750 (  1082 PWs)   bands (ev):

   -44.6197 -21.3082 -21.2816 -21.2813  -5.3059  -5.1388  -5.1164  -3.9082
    -3.9032  -3.6173  -3.5538  -3.5410   4.1672   5.9363   5.9616   6.7071
     7.0864   7.1031   8.0087  10.6627  10.6976  10.7648

          k = 0.3750-0.1250 0.1250 (  1095 PWs)   bands (ev):

   -44.6223 -21.2876 -21.2538 -21.2278  -5.9263  -5.1365  -5.0670  -4.0209
    -3.9546  -3.9431  -3.8747  -3.7443   3.9216   6.8704   7.3658   7.8549
     8.4525   8.7855   9.3573   9.9359  10.0774  10.8700

          k = 0.3750-0.3750 0.1250 (  1087 PWs)   bands (ev):

   -44.6210 -21.2845 -21.2836 -21.2516  -5.7307  -4.9911  -4.9187  -3.9917
    -3.9498  -3.8924  -3.8051  -3.6676   3.5583   6.8302   6.8759   7.1906
     7.4939   8.6912   9.4913   9.5061  10.0429  10.7585

     highest occupied level (ev):    10.9106

!    total energy              =    -333.18206101 Ry
     estimated scf accuracy    <          5.7E-10 Ry

     The total energy is the sum of the following terms:
     one-electron contribution =     -76.60860950 Ry
     hartree contribution      =      66.29945078 Ry
     xc contribution           =     -49.65290142 Ry
     ewald contribution        =    -273.22000087 Ry

     convergence has been achieved in  11 iterations

     Forces acting on atoms (cartesian axes, Ry/au):

     atom    1 type  2   force =     0.00000000    0.00000000    0.01449679
     atom    2 type  3   force =     0.00000000    0.00000000   -0.02103272
     atom    3 type  1   force =     0.00000000    0.00000000    0.00636131
     atom    4 type  1   force =     0.00000000    0.00000000    0.00636131
     atom    5 type  1   force =     0.00000000    0.00000000   -0.00618668

     Total force =     0.010918     Total SCF correction =     0.000008


     Computing stress (Cartesian axis) and pressure

          total   stress  (Ry/bohr**3)                   (kbar)     P=      -11.23
  -0.00009408   0.00000000   0.00000000          -13.84        0.00        0.00
   0.00000000  -0.00009408   0.00000000            0.00      -13.84        0.00
   0.00000000   0.00000000  -0.00004078            0.00        0.00       -6.00

     Energy error            =      1.5E-04 Ry
     Gradient error          =      6.4E-03 Ry/Bohr

     number of scf cycles    =   6
     number of bfgs steps    =   5

     energy             old  =    -333.1819128187 Ry
     energy             new  =    -333.1820610099 Ry

     CASE: energy            _new < energy            _old

     new trust radius        =       0.0294942319 bohr
     new conv_thr            =       0.0000000015 Ry


ATOMIC_POSITIONS (angstrom)
Pb               0.0000000000        0.0000000000        0.0000000000    0   0   0
Ti               1.9375000000        1.9375000000        2.0731300000    0   0   0
O                0.0000000000        1.9375000000        1.9782005532
O                1.9375000000        0.0000000000        1.9782005532
O                1.9375000000        1.9375000000        0.0663099729


     Message from routine punch:
     Nothing written, as per user request (disk_io='none')
     NEW-OLD atomic charge density approx. for the potential

     total cpu time spent up to now is       45.1 secs

     Self-consistent Calculation

     iteration #  1     ecut=    30.00 Ry     beta= 0.70
     Davidson diagonalization with overlap
     ethr =  1.00E-06,  avg # of iterations =  7.2

     total cpu time spent up to now is       45.7 secs

     total energy              =    -333.18224761 Ry
     estimated scf accuracy    <       0.00018837 Ry

     iteration #  2     ecut=    30.00 Ry     beta= 0.70
     Davidson diagonalization with overlap
     ethr =  4.28E-07,  avg # of iterations =  3.7

     total cpu time spent up to now is       46.1 secs

     total energy              =    -333.18226366 Ry
     estimated scf accuracy    <       0.00004140 Ry

     iteration #  3     ecut=    30.00 Ry     beta= 0.70
     Davidson diagonalization with overlap
     ethr =  9.41E-08,  avg # of iterations =  4.8

     total cpu time spent up to now is       46.6 secs

     total energy              =    -333.18227182 Ry
     estimated scf accuracy    <       0.00004263 Ry

     iteration #  4     ecut=    30.00 Ry     beta= 0.70
     Davidson diagonalization with overlap
     ethr =  9.41E-08,  avg # of iterations =  3.7

     total cpu time spent up to now is       47.0 secs

     total energy              =    -333.18227944 Ry
     estimated scf accuracy    <       0.00000088 Ry

     iteration #  5     ecut=    30.00 Ry     beta= 0.70
     Davidson diagonalization with overlap
     ethr =  2.00E-09,  avg # of iterations =  6.5

     total cpu time spent up to now is       47.6 secs

     total energy              =    -333.18228029 Ry
     estimated scf accuracy    <       0.00000309 Ry

     iteration #  6     ecut=    30.00 Ry     beta= 0.70
     Davidson diagonalization with overlap
     ethr =  2.00E-09,  avg # of iterations =  4.5

     total cpu time spent up to now is       48.1 secs

     total energy              =    -333.18228044 Ry
     estimated scf accuracy    <       0.00000039 Ry

     iteration #  7     ecut=    30.00 Ry     beta= 0.70
     Davidson diagonalization with overlap
     ethr =  8.92E-10,  avg # of iterations =  3.8

     total cpu time spent up to now is       48.5 secs

     total energy              =    -333.18228050 Ry
     estimated scf accuracy    <       0.00000001 Ry

     iteration #  8     ecut=    30.00 Ry     beta= 0.70
     Davidson diagonalization with overlap
     ethr =  3.29E-11,  avg # of iterations =  6.5

     total cpu time spent up to now is       49.0 secs

     total energy              =    -333.18228052 Ry
     estimated scf accuracy    <       0.00000002 Ry

     iteration #  9     ecut=    30.00 Ry     beta= 0.70
     Davidson diagonalization with overlap
     ethr =  3.29E-11,  avg # of iterations =  4.5

     total cpu time spent up to now is       49.6 secs

     End of self-consistent calculation

          k = 0.1250 0.1250 0.1250 (  1090 PWs)   bands (ev):

   -44.6348 -21.2596 -21.2425 -21.2415  -6.3306  -5.2604  -5.2415  -3.9596
    -3.9560  -3.9434  -3.7757  -3.7705   4.6581   7.3052   7.3156   8.0920
     9.0998   9.1425   9.8692   9.8810  10.0104  10.1568

          k = 0.1250 0.1250 0.3750 (  1095 PWs)   bands (ev):

   -44.6335 -21.3177 -21.2403 -21.2393  -5.9102  -5.1203  -5.0966  -4.0191
    -3.9544  -3.9395  -3.8686  -3.7452   3.9192   6.8366   7.3042   7.8458
     8.4738   8.7186   9.4143   9.9360  10.1451  10.9029

          k = 0.1250 0.3750 0.3750 (  1087 PWs)   bands (ev):

   -44.6322 -21.3141 -21.2961 -21.2377  -5.6951  -5.0102  -4.9369  -3.9932
    -3.9492  -3.8952  -3.8044  -3.6478   3.5534   6.7594   6.9016   7.1914
     7.5036   8.7002   9.4350   9.5094  10.0661  10.7207

          k = 0.3750 0.3750 0.3750 (  1082 PWs)   bands (ev):

   -44.6310 -21.3116 -21.2937 -21.2935  -5.3049  -5.1364  -5.1223  -3.9052
    -3.9011  -3.6142  -3.5507  -3.5398   4.1657   5.9415   5.9559   6.7111
     7.0724   7.0819   8.0126  10.6717  10.6972  10.7632

          k = 0.3750-0.1250 0.1250 (  1095 PWs)   bands (ev):

   -44.6335 -21.2998 -21.2574 -21.2398  -5.9253  -5.1383  -5.0737  -4.0187
    -3.9521  -3.9406  -3.8705  -3.7419   3.9233   6.8608   7.3605   7.8552
     8.4544   8.7755   9.3673   9.9399  10.0903  10.8728

          k = 0.3750-0.3750 0.1250 (  1087 PWs)   bands (ev):

   -44.6323 -21.2966 -21.2957 -21.2552  -5.7223  -4.9978  -4.9267  -3.9898
    -3.9468  -3.8892  -3.8018  -3.6632   3.5552   6.8249   6.8668   7.1904
     7.4930   8.6901   9.4847   9.5039  10.0486  10.7504

     highest occupied level (ev):    10.9029

!    total energy              =    -333.18228052 Ry
     estimated scf accuracy    <          6.2E-10 Ry

     The total energy is the sum of the following terms:
     one-electron contribution =     -76.62569024 Ry
     hartree contribution      =      66.30487759 Ry
     xc contribution           =     -49.65183944 Ry
     ewald contribution        =    -273.20962843 Ry

     convergence has been achieved in   9 iterations

     Forces acting on atoms (cartesian axes, Ry/au):

     atom    1 type  2   force =     0.00000000    0.00000000    0.01345951
     atom    2 type  3   force =     0.00000000    0.00000000   -0.01901064
     atom    3 type  1   force =     0.00000000    0.00000000    0.00639589
     atom    4 type  1   force =     0.00000000    0.00000000    0.00639589
     atom    5 type  1   force =     0.00000000    0.00000000   -0.00724065

     Total force =     0.011586     Total SCF correction =     0.000013


     Computing stress (Cartesian axis) and pressure

          total   stress  (Ry/bohr**3)                   (kbar)     P=      -11.91
  -0.00009129   0.00000000   0.00000000          -13.43        0.00        0.00
   0.00000000  -0.00009129   0.00000000            0.00      -13.43        0.00
   0.00000000   0.00000000  -0.00006037            0.00        0.00       -8.88

     Energy error            =      2.2E-04 Ry
     Gradient error          =      7.2E-03 Ry/Bohr

     number of scf cycles    =   7
     number of bfgs steps    =   6

     energy             old  =    -333.1820610099 Ry
     energy             new  =    -333.1822805182 Ry

     CASE: energy            _new < energy            _old

     new trust radius        =       0.0442413478 bohr
     new conv_thr            =       0.0000000022 Ry


ATOMIC_POSITIONS (angstrom)
Pb               0.0000000000        0.0000000000        0.0000000000    0   0   0
Ti               1.9375000000        1.9375000000        2.0731300000    0   0   0
O                0.0000000000        1.9375000000        2.0016120663
O                1.9375000000        0.0000000000        2.0016120663
O                1.9375000000        1.9375000000        0.0834522477


     Message from routine punch:
     Nothing written, as per user request (disk_io='none')
     NEW-OLD atomic charge density approx. for the potential

     total cpu time spent up to now is       51.3 secs

     Self-consistent Calculation

     iteration #  1     ecut=    30.00 Ry     beta= 0.70
     Davidson diagonalization with overlap
     ethr =  1.00E-06,  avg # of iterations =  8.3

     total cpu time spent up to now is       52.0 secs

     total energy              =    -333.18253249 Ry
     estimated scf accuracy    <       0.00039499 Ry

     iteration #  2     ecut=    30.00 Ry     beta= 0.70
     Davidson diagonalization with overlap
     ethr =  8.98E-07,  avg # of iterations =  2.5

     total cpu time spent up to now is       52.5 secs

     total energy              =    -333.18258305 Ry
     estimated scf accuracy    <       0.00004086 Ry

     iteration #  3     ecut=    30.00 Ry     beta= 0.70
     Davidson diagonalization with overlap
     ethr =  9.29E-08,  avg # of iterations =  4.3

     total cpu time spent up to now is       53.0 secs

     total energy              =    -333.18258977 Ry
     estimated scf accuracy    <       0.00002530 Ry

     iteration #  4     ecut=    30.00 Ry     beta= 0.70
     Davidson diagonalization with overlap
     ethr =  5.75E-08,  avg # of iterations =  4.7

     total cpu time spent up to now is       53.6 secs

     total energy              =    -333.18259586 Ry
     estimated scf accuracy    <       0.00000512 Ry

     iteration #  5     ecut=    30.00 Ry     beta= 0.70
     Davidson diagonalization with overlap
     ethr =  1.16E-08,  avg # of iterations =  3.8

     total cpu time spent up to now is       54.2 secs

     total energy              =    -333.18259680 Ry
     estimated scf accuracy    <       0.00000016 Ry

     iteration #  6     ecut=    30.00 Ry     beta= 0.70
     Davidson diagonalization with overlap
     ethr =  3.72E-10,  avg # of iterations =  6.0

     total cpu time spent up to now is       54.8 secs

     total energy              =    -333.18259689 Ry
     estimated scf accuracy    <       0.00000023 Ry

     iteration #  7     ecut=    30.00 Ry     beta= 0.70
     Davidson diagonalization with overlap
     ethr =  3.72E-10,  avg # of iterations =  4.3

     total cpu time spent up to now is       55.3 secs

     total energy              =    -333.18259691 Ry
     estimated scf accuracy    <       0.00000002 Ry

     iteration #  8     ecut=    30.00 Ry     beta= 0.70
     Davidson diagonalization with overlap
     ethr =  5.00E-11,  avg # of iterations =  4.7

     total cpu time spent up to now is       56.1 secs

     total energy              =    -333.18259691 Ry
     estimated scf accuracy    <          3.7E-09 Ry

     iteration #  9     ecut=    30.00 Ry     beta= 0.70
     Davidson diagonalization with overlap
     ethr =  8.38E-12,  avg # of iterations =  4.7

     total cpu time spent up to now is       56.6 secs

     End of self-consistent calculation

          k = 0.1250 0.1250 0.1250 (  1090 PWs)   bands (ev):

   -44.6483 -21.2644 -21.2571 -21.2561  -6.3343  -5.2574  -5.2562  -3.9549
    -3.9524  -3.9393  -3.7723  -3.7652   4.6614   7.3071   7.3129   8.0963
     9.1174   9.1442   9.8912   9.9172   9.9913  10.1356

          k = 0.1250 0.1250 0.3750 (  1095 PWs)   bands (ev):

   -44.6471 -21.3223 -21.2549 -21.2540  -5.9220  -5.1371  -5.0866  -4.0136
    -3.9493  -3.9356  -3.8631  -3.7410   3.9296   6.8413   7.3265   7.8444
     8.4572   8.7339   9.4021   9.9450  10.1281  10.8934

          k = 0.1250 0.3750 0.3750 (  1087 PWs)   bands (ev):

   -44.6458 -21.3187 -21.3109 -21.2523  -5.7066  -5.0091  -4.9391  -3.9883
    -3.9447  -3.8902  -3.7995  -3.6440   3.5583   6.7819   6.8741   7.1872
     7.4984   8.6890   9.4376   9.5034  10.0685  10.7277

          k = 0.3750 0.3750 0.3750 (  1082 PWs)   bands (ev):

   -44.6445 -21.3162 -21.3085 -21.3082  -5.3057  -5.1329  -5.1320  -3.9002
    -3.8973  -3.6097  -3.5452  -3.5366   4.1620   5.9475   5.9479   6.7149
     7.0548   7.0549   8.0208  10.6817  10.6915  10.7629

          k = 0.3750-0.1250 0.1250 (  1095 PWs)   bands (ev):

   -44.6471 -21.3145 -21.2622 -21.2544  -5.9255  -5.1420  -5.0840  -4.0147
    -3.9478  -3.9362  -3.8630  -3.7372   3.9253   6.8476   7.3523   7.8551
     8.4555   8.7622   9.3783   9.9431  10.1046  10.8771

          k = 0.3750-0.3750 0.1250 (  1087 PWs)   bands (ev):

   -44.6458 -21.3114 -21.3104 -21.2600  -5.7115  -5.0090  -4.9401  -3.9863
    -3.9413  -3.8827  -3.7952  -3.6566   3.5496   6.8169   6.8541   7.1890
     7.4917   8.6893   9.4756   9.5009  10.0573  10.7381

     highest occupied level (ev):    10.8934

!    total energy              =    -333.18259691 Ry
     estimated scf accuracy    <          3.0E-10 Ry

     The total energy is the sum of the following terms:
     one-electron contribution =     -76.67996221 Ry
     hartree contribution      =      66.32835686 Ry
     xc contribution           =     -49.65127441 Ry
     ewald contribution        =    -273.17971715 Ry

     convergence has been achieved in   9 iterations

     Forces acting on atoms (cartesian axes, Ry/au):

     atom    1 type  2   force =     0.00000000    0.00000000    0.01200052
     atom    2 type  3   force =     0.00000000    0.00000000   -0.01704194
     atom    3 type  1   force =     0.00000000    0.00000000    0.00620754
     atom    4 type  1   force =     0.00000000    0.00000000    0.00620754
     atom    5 type  1   force =     0.00000000    0.00000000   -0.00737366

     Total force =     0.011465     Total SCF correction =     0.000005


     Computing stress (Cartesian axis) and pressure

          total   stress  (Ry/bohr**3)                   (kbar)     P=      -12.24
  -0.00008561   0.00000000   0.00000000          -12.59        0.00        0.00
   0.00000000  -0.00008561   0.00000000            0.00      -12.59        0.00
   0.00000000   0.00000000  -0.00007849            0.00        0.00      -11.55

     Energy error            =      3.2E-04 Ry
     Gradient error          =      7.4E-03 Ry/Bohr

     number of scf cycles    =   8
     number of bfgs steps    =   7

     energy             old  =    -333.1822805182 Ry
     energy             new  =    -333.1825969137 Ry

     CASE: energy            _new < energy            _old

     new trust radius        =       0.0663620218 bohr
     new conv_thr            =       0.0000000032 Ry


ATOMIC_POSITIONS (angstrom)
Pb               0.0000000000        0.0000000000        0.0000000000    0   0   0
Ti               1.9375000000        1.9375000000        2.0731300000    0   0   0
O                0.0000000000        1.9375000000        2.0367293359
O                1.9375000000        0.0000000000        2.0367293359
O                1.9375000000        1.9375000000        0.1086279387


     Message from routine punch:
     Nothing written, as per user request (disk_io='none')
     NEW-OLD atomic charge density approx. for the potential

     total cpu time spent up to now is       58.3 secs

     Self-consistent Calculation

     iteration #  1     ecut=    30.00 Ry     beta= 0.70
     Davidson diagonalization with overlap
     ethr =  1.00E-06,  avg # of iterations =  9.3

     total cpu time spent up to now is       58.9 secs

     total energy              =    -333.18293400 Ry
     estimated scf accuracy    <       0.00086484 Ry

     iteration #  2     ecut=    30.00 Ry     beta= 0.70
     Davidson diagonalization with overlap
     ethr =  1.97E-06,  avg # of iterations =  2.3

     total cpu time spent up to now is       59.4 secs

     total energy              =    -333.18304544 Ry
     estimated scf accuracy    <       0.00006663 Ry

     iteration #  3     ecut=    30.00 Ry     beta= 0.70
     Davidson diagonalization with overlap
     ethr =  1.51E-07,  avg # of iterations =  4.2

     total cpu time spent up to now is       59.8 secs

     total energy              =    -333.18305488 Ry
     estimated scf accuracy    <       0.00003780 Ry

     iteration #  4     ecut=    30.00 Ry     beta= 0.70
     Davidson diagonalization with overlap
     ethr =  8.59E-08,  avg # of iterations =  4.5

     total cpu time spent up to now is       60.3 secs

     total energy              =    -333.18306419 Ry
     estimated scf accuracy    <       0.00001114 Ry

     iteration #  5     ecut=    30.00 Ry     beta= 0.70
     Davidson diagonalization with overlap
     ethr =  2.53E-08,  avg # of iterations =  3.7

     total cpu time spent up to now is       60.8 secs

     total energy              =    -333.18306614 Ry
     estimated scf accuracy    <       0.00000035 Ry

     iteration #  6     ecut=    30.00 Ry     beta= 0.70
     Davidson diagonalization with overlap
     ethr =  7.99E-10,  avg # of iterations =  5.8

     total cpu time spent up to now is       61.3 secs

     total energy              =    -333.18306634 Ry
     estimated scf accuracy    <       0.00000070 Ry

     iteration #  7     ecut=    30.00 Ry     beta= 0.70
     Davidson diagonalization with overlap
     ethr =  7.99E-10,  avg # of iterations =  4.2

     total cpu time spent up to now is       61.8 secs

     total energy              =    -333.18306639 Ry
     estimated scf accuracy    <       0.00000009 Ry

     iteration #  8     ecut=    30.00 Ry     beta= 0.70
     Davidson diagonalization with overlap
     ethr =  1.95E-10,  avg # of iterations =  4.7

     total cpu time spent up to now is       62.2 secs

     total energy              =    -333.18306641 Ry
     estimated scf accuracy    <          6.2E-09 Ry

     iteration #  9     ecut=    30.00 Ry     beta= 0.70
     Davidson diagonalization with overlap
     ethr =  1.41E-11,  avg # of iterations =  4.8

     total cpu time spent up to now is       62.6 secs

     End of self-consistent calculation

          k = 0.1250 0.1250 0.1250 (  1090 PWs)   bands (ev):

   -44.6641 -21.2745 -21.2733 -21.2709  -6.3427  -5.2785  -5.2532  -3.9467
    -3.9452  -3.9311  -3.7660  -3.7534   4.6659   7.3048   7.3097   8.1006
     9.1347   9.1421   9.8979   9.9676   9.9694  10.1097

          k = 0.1250 0.1250 0.3750 (  1095 PWs)   bands (ev):

   -44.6629 -21.3289 -21.2721 -21.2711  -5.9415  -5.1629  -5.0732  -4.0034
    -3.9402  -3.9278  -3.8509  -3.7335   3.9431   6.8475   7.3453   7.8363
     8.4403   8.7505   9.3839   9.9518  10.1033  10.8843

          k = 0.1250 0.3750 0.3750 (  1087 PWs)   bands (ev):

   -44.6616 -21.3283 -21.3252 -21.2695  -5.7248  -5.0177  -4.9380  -3.9792
    -3.9363  -3.8809  -3.7899  -3.6345   3.5660   6.8047   6.8402   7.1781
     7.4916   8.6725   9.4309   9.5004  10.0739  10.7338

          k = 0.3750 0.3750 0.3750 (  1082 PWs)   bands (ev):

   -44.6604 -21.3258 -21.3255 -21.3227  -5.3121  -5.1487  -5.1273  -3.8911
    -3.8897  -3.6026  -3.5350  -3.5283   4.1536   5.9351   5.9553   6.7147
     7.0246   7.0362   8.0393  10.6759  10.6908  10.7640

          k = 0.3750-0.1250 0.1250 (  1095 PWs)   bands (ev):

   -44.6629 -21.3318 -21.2717 -21.2688  -5.9296  -5.1500  -5.1003  -4.0072
    -3.9397  -3.9274  -3.8483  -3.7274   3.9280   6.8299   7.3403   7.8535
     8.4527   8.7468   9.3882   9.9425  10.1158  10.8847

          k = 0.3750-0.3750 0.1250 (  1087 PWs)   bands (ev):

   -44.6616 -21.3286 -21.3277 -21.2668  -5.6991  -5.0288  -4.9638  -3.9792
    -3.9305  -3.8690  -3.7812  -3.6461   3.5396   6.8041   6.8368   7.1866
     7.4921   8.6898   9.4648   9.4965  10.0706  10.7183

     highest occupied level (ev):    10.8847

!    total energy              =    -333.18306641 Ry
     estimated scf accuracy    <          1.4E-10 Ry

     The total energy is the sum of the following terms:
     one-electron contribution =     -76.80216142 Ry
     hartree contribution      =      66.38530811 Ry
     xc contribution           =     -49.65195541 Ry
     ewald contribution        =    -273.11425769 Ry

     convergence has been achieved in   9 iterations

     Forces acting on atoms (cartesian axes, Ry/au):

     atom    1 type  2   force =     0.00000000    0.00000000    0.01007513
     atom    2 type  3   force =     0.00000000    0.00000000   -0.01550688
     atom    3 type  1   force =     0.00000000    0.00000000    0.00577264
     atom    4 type  1   force =     0.00000000    0.00000000    0.00577264
     atom    5 type  1   force =     0.00000000    0.00000000   -0.00611353

     Total force =     0.010199     Total SCF correction =     0.000006


     Computing stress (Cartesian axis) and pressure

          total   stress  (Ry/bohr**3)                   (kbar)     P=      -11.95
  -0.00007647   0.00000000   0.00000000          -11.25        0.00        0.00
   0.00000000  -0.00007647   0.00000000            0.00      -11.25        0.00
   0.00000000   0.00000000  -0.00009070            0.00        0.00      -13.34

     Energy error            =      4.7E-04 Ry
     Gradient error          =      6.1E-03 Ry/Bohr

     number of scf cycles    =   9
     number of bfgs steps    =   8

     energy             old  =    -333.1825969137 Ry
     energy             new  =    -333.1830664085 Ry

     CASE: energy            _new < energy            _old


     WARNING: bfgs curvature condition failed, Theta= 0.764
     new trust radius        =       0.0995430327 bohr
     new conv_thr            =       0.0000000047 Ry


ATOMIC_POSITIONS (angstrom)
Pb               0.0000000000        0.0000000000        0.0000000000    0   0   0
Ti               1.9375000000        1.9375000000        2.0731300000    0   0   0
O                0.0000000000        1.9375000000        2.0894052402
O                1.9375000000        0.0000000000        2.0894052402
O                1.9375000000        1.9375000000        0.1452753173


     Message from routine punch:
     Nothing written, as per user request (disk_io='none')
     NEW-OLD atomic charge density approx. for the potential

     total cpu time spent up to now is       64.2 secs

     Self-consistent Calculation

     iteration #  1     ecut=    30.00 Ry     beta= 0.70
     Davidson diagonalization with overlap
     ethr =  1.00E-06,  avg # of iterations =  9.3

     total cpu time spent up to now is       64.9 secs

     total energy              =    -333.18356216 Ry
     estimated scf accuracy    <       0.00186932 Ry

     iteration #  2     ecut=    30.00 Ry     beta= 0.70
     Davidson diagonalization with overlap
     ethr =  4.25E-06,  avg # of iterations =  2.2

     total cpu time spent up to now is       65.3 secs

     total energy              =    -333.18380579 Ry
     estimated scf accuracy    <       0.00009999 Ry

     iteration #  3     ecut=    30.00 Ry     beta= 0.70
     Davidson diagonalization with overlap
     ethr =  2.27E-07,  avg # of iterations =  4.0

     total cpu time spent up to now is       65.7 secs

     total energy              =    -333.18382363 Ry
     estimated scf accuracy    <       0.00003037 Ry

     iteration #  4     ecut=    30.00 Ry     beta= 0.70
     Davidson diagonalization with overlap
     ethr =  6.90E-08,  avg # of iterations =  4.7

     total cpu time spent up to now is       66.2 secs

     total energy              =    -333.18382907 Ry
     estimated scf accuracy    <       0.00001298 Ry

     iteration #  5     ecut=    30.00 Ry     beta= 0.70
     Davidson diagonalization with overlap
     ethr =  2.95E-08,  avg # of iterations =  4.7

     total cpu time spent up to now is       66.6 secs

     total energy              =    -333.18383201 Ry
     estimated scf accuracy    <       0.00000206 Ry

     iteration #  6     ecut=    30.00 Ry     beta= 0.70
     Davidson diagonalization with overlap
     ethr =  4.67E-09,  avg # of iterations =  4.2

     total cpu time spent up to now is       67.1 secs

     total energy              =    -333.18383233 Ry
     estimated scf accuracy    <       0.00000047 Ry

     iteration #  7     ecut=    30.00 Ry     beta= 0.70
     Davidson diagonalization with overlap
     ethr =  1.06E-09,  avg # of iterations =  4.3

     total cpu time spent up to now is       67.5 secs

     total energy              =    -333.18383243 Ry
     estimated scf accuracy    <          6.8E-09 Ry

     iteration #  8     ecut=    30.00 Ry     beta= 0.70
     Davidson diagonalization with overlap
     ethr =  1.54E-11,  avg # of iterations =  6.2

     total cpu time spent up to now is       68.0 secs

     total energy              =    -333.18383244 Ry
     estimated scf accuracy    <          8.4E-09 Ry

     iteration #  9     ecut=    30.00 Ry     beta= 0.70
     Davidson diagonalization with overlap
     ethr =  1.54E-11,  avg # of iterations =  4.5

     total cpu time spent up to now is       68.5 secs

     End of self-consistent calculation

          k = 0.1250 0.1250 0.1250 (  1090 PWs)   bands (ev):

   -44.6783 -21.2899 -21.2887 -21.2798  -6.3613  -5.3126  -5.2487  -3.9314
    -3.9307  -3.9142  -3.7537  -3.7266   4.6724   7.2901   7.3065   8.1014
     9.1303   9.1408   9.8816   9.9492   9.9496  10.1374

          k = 0.1250 0.1250 0.3750 (  1095 PWs)   bands (ev):

   -44.6770 -21.3375 -21.2876 -21.2866  -5.9741  -5.2026  -5.0575  -3.9840
    -3.9231  -3.9115  -3.8235  -3.7196   3.9587   6.8544   7.3379   7.8115
     8.4359   8.7581   9.3593   9.9451  10.0694  10.8830

          k = 0.1250 0.3750 0.3750 (  1087 PWs)   bands (ev):

   -44.6758 -21.3438 -21.3338 -21.2850  -5.7543  -5.0477  -4.9332  -3.9620
    -3.9198  -3.8630  -3.7702  -3.6113   3.5787   6.7676   6.8523   7.1604
     7.4814   8.6493   9.4095   9.4977  10.0881  10.7321

          k = 0.3750 0.3750 0.3750 (  1082 PWs)   bands (ev):

   -44.6745 -21.3414 -21.3411 -21.3313  -5.3320  -5.1789  -5.1204  -3.8739
    -3.8736  -3.5900  -3.5158  -3.5083   4.1346   5.9179   5.9613   6.7013
     7.0028   7.0262   8.0804  10.6448  10.6916  10.7615

          k = 0.3750-0.1250 0.1250 (  1095 PWs)   bands (ev):

   -44.6770 -21.3473 -21.2871 -21.2777  -5.9436  -5.1696  -5.1249  -3.9918
    -3.9240  -3.9096  -3.8193  -3.7060   3.9313   6.8079   7.3238   7.8476
     8.4381   8.7353   9.3889   9.9304  10.1084  10.8983

          k = 0.3750-0.3750 0.1250 (  1087 PWs)   bands (ev):

   -44.6758 -21.3442 -21.3433 -21.2756  -5.6893  -5.0643  -5.0070  -3.9638
    -3.9092  -3.8398  -3.7510  -3.6289   3.5210   6.7833   6.8165   7.1841
     7.4985   8.6939   9.4558   9.4894  10.0902  10.6860

     highest occupied level (ev):    10.8983

!    total energy              =    -333.18383244 Ry
     estimated scf accuracy    <          9.5E-10 Ry

     The total energy is the sum of the following terms:
     one-electron contribution =     -77.06937133 Ry
     hartree contribution      =      66.51549490 Ry
     xc contribution           =     -49.65607644 Ry
     ewald contribution        =    -272.97387957 Ry

     convergence has been achieved in   9 iterations

     Forces acting on atoms (cartesian axes, Ry/au):

     atom    1 type  2   force =     0.00000000    0.00000000    0.00768198
     atom    2 type  3   force =     0.00000000    0.00000000   -0.01513783
     atom    3 type  1   force =     0.00000000    0.00000000    0.00481075
     atom    4 type  1   force =     0.00000000    0.00000000    0.00481075
     atom    5 type  1   force =     0.00000000    0.00000000   -0.00216566

     Total force =     0.007140     Total SCF correction =     0.000007


     Computing stress (Cartesian axis) and pressure

          total   stress  (Ry/bohr**3)                   (kbar)     P=      -10.01
  -0.00006207   0.00000000   0.00000000           -9.13        0.00        0.00
   0.00000000  -0.00006207   0.00000000            0.00       -9.13        0.00
   0.00000000   0.00000000  -0.00007996            0.00        0.00      -11.76

     Energy error            =      7.7E-04 Ry
     Gradient error          =      4.8E-03 Ry/Bohr

     number of scf cycles    =  10
     number of bfgs steps    =   9

     energy             old  =    -333.1830664085 Ry
     energy             new  =    -333.1838324403 Ry

     CASE: energy            _new < energy            _old


     WARNING: bfgs curvature condition failed, Theta= 0.060
     new trust radius        =       0.1493145490 bohr
     new conv_thr            =       0.0000000048 Ry


ATOMIC_POSITIONS (angstrom)
Pb               0.0000000000        0.0000000000        0.0000000000    0   0   0
Ti               1.9375000000        1.9375000000        2.0731300000    0   0   0
O                0.0000000000        1.9375000000        2.1684190968
O                1.9375000000        0.0000000000        2.1684190968
O                1.9375000000        1.9375000000        0.2002521032


     Message from routine punch:
     Nothing written, as per user request (disk_io='none')
     NEW-OLD atomic charge density approx. for the potential

     total cpu time spent up to now is       70.0 secs

     Self-consistent Calculation

     iteration #  1     ecut=    30.00 Ry     beta= 0.70
     Davidson diagonalization with overlap
     ethr =  1.00E-06,  avg # of iterations = 11.3

     total cpu time spent up to now is       70.9 secs

     total energy              =    -333.18447990 Ry
     estimated scf accuracy    <       0.00423831 Ry

     iteration #  2     ecut=    30.00 Ry     beta= 0.70
     Davidson diagonalization with overlap
     ethr =  9.63E-06,  avg # of iterations =  2.0

     total cpu time spent up to now is       71.3 secs

     total energy              =    -333.18502163 Ry
     estimated scf accuracy    <       0.00017899 Ry

     iteration #  3     ecut=    30.00 Ry     beta= 0.70
     Davidson diagonalization with overlap
     ethr =  4.07E-07,  avg # of iterations =  3.8

     total cpu time spent up to now is       71.8 secs

     total energy              =    -333.18505000 Ry
     estimated scf accuracy    <       0.00006673 Ry

     iteration #  4     ecut=    30.00 Ry     beta= 0.70
     Davidson diagonalization with overlap
     ethr =  1.52E-07,  avg # of iterations =  4.3

     total cpu time spent up to now is       72.3 secs

     total energy              =    -333.18506473 Ry
     estimated scf accuracy    <       0.00002827 Ry

     iteration #  5     ecut=    30.00 Ry     beta= 0.70
     Davidson diagonalization with overlap
     ethr =  6.42E-08,  avg # of iterations =  3.8

     total cpu time spent up to now is       72.7 secs

     total energy              =    -333.18507080 Ry
     estimated scf accuracy    <       0.00000051 Ry

     iteration #  6     ecut=    30.00 Ry     beta= 0.70
     Davidson diagonalization with overlap
     ethr =  1.15E-09,  avg # of iterations =  5.5

     total cpu time spent up to now is       73.2 secs

     total energy              =    -333.18507097 Ry
     estimated scf accuracy    <       0.00000061 Ry

     iteration #  7     ecut=    30.00 Ry     beta= 0.70
     Davidson diagonalization with overlap
     ethr =  1.15E-09,  avg # of iterations =  4.3

[...]

     iteration #  3     ecut=    30.00 Ry     beta= 0.70
     Davidson diagonalization with overlap
     ethr =  9.81E-09,  avg # of iterations =  5.0

     total cpu time spent up to now is      100.8 secs

     total energy              =    -333.18581070 Ry
     estimated scf accuracy    <       0.00000499 Ry

     iteration #  4     ecut=    30.00 Ry     beta= 0.70
     Davidson diagonalization with overlap
     ethr =  9.81E-09,  avg # of iterations =  4.3

     total cpu time spent up to now is      101.3 secs

     total energy              =    -333.18581174 Ry
     estimated scf accuracy    <       0.00000022 Ry

     iteration #  5     ecut=    30.00 Ry     beta= 0.70
     Davidson diagonalization with overlap
     ethr =  4.89E-10,  avg # of iterations =  4.8

     total cpu time spent up to now is      101.7 secs

     total energy              =    -333.18581178 Ry
     estimated scf accuracy    <       0.00000015 Ry

     iteration #  6     ecut=    30.00 Ry     beta= 0.70
     Davidson diagonalization with overlap
     ethr =  3.38E-10,  avg # of iterations =  3.3

     total cpu time spent up to now is      102.1 secs

     total energy              =    -333.18581180 Ry
     estimated scf accuracy    <          6.8E-09 Ry

     iteration #  7     ecut=    30.00 Ry     beta= 0.70
     Davidson diagonalization with overlap
     ethr =  1.56E-11,  avg # of iterations =  7.0

     total cpu time spent up to now is      102.6 secs

     total energy              =    -333.18581181 Ry
     estimated scf accuracy    <       0.00000001 Ry

     iteration #  8     ecut=    30.00 Ry     beta= 0.70
     Davidson diagonalization with overlap
     ethr =  1.56E-11,  avg # of iterations =  2.3

     total cpu time spent up to now is      103.0 secs

     total energy              =    -333.18581181 Ry
     estimated scf accuracy    <          5.8E-09 Ry

     iteration #  9     ecut=    30.00 Ry     beta= 0.70
     Davidson diagonalization with overlap
     ethr =  1.33E-11,  avg # of iterations =  4.7

     total cpu time spent up to now is      103.4 secs

     total energy              =    -333.18581181 Ry
     estimated scf accuracy    <          1.3E-09 Ry

     iteration # 10     ecut=    30.00 Ry     beta= 0.70
     Davidson diagonalization with overlap
     ethr =  2.92E-12,  avg # of iterations =  2.3

     total cpu time spent up to now is      103.8 secs

     End of self-consistent calculation

          k = 0.1250 0.1250 0.1250 (  1090 PWs)   bands (ev):

   -44.6461 -21.2927 -21.2566 -21.2557  -6.4539  -5.4173  -5.2526  -3.8642
    -3.8620  -3.8338  -3.6981  -3.5829   4.6909   7.1726   7.2918   8.0749
     9.0238   9.0482   9.6223   9.7447   9.9138  10.2546

          k = 0.1250 0.1250 0.3750 (  1095 PWs)   bands (ev):

   -44.6449 -21.3506 -21.2544 -21.2535  -6.0904  -5.3250  -5.0454  -3.9041
    -3.8469  -3.8324  -3.6731  -3.6606   3.9760   6.8405   7.0992   7.6823
     8.5403   8.6398   9.3184   9.8180   9.9817  10.9610

          k = 0.1250 0.3750 0.3750 (  1087 PWs)   bands (ev):

   -44.6436 -21.3469 -21.3099 -21.2519  -5.8533  -5.1958  -4.9546  -3.8872
    -3.8414  -3.7855  -3.6729  -3.4826   3.6241   6.5595   6.9192   7.1208
     7.4151   8.6126   9.3366   9.4199  10.1778  10.6503

          k = 0.3750 0.3750 0.3750 (  1082 PWs)   bands (ev):

   -44.6423 -21.3443 -21.3075 -21.3073  -5.4442  -5.3033  -5.1263  -3.7981
    -3.7939  -3.5432  -3.4282  -3.3954   4.0330   5.8735   5.9487   6.6004
     7.1092   7.1098   8.2911  10.5326  10.5949  10.6822

          k = 0.3750-0.1250 0.1250 (  1095 PWs)   bands (ev):

   -44.6449 -21.3137 -21.2902 -21.2540  -6.0318  -5.2872  -5.1969  -3.9166
    -3.8522  -3.8291  -3.6910  -3.5882   3.9367   6.7814   7.2825   7.8026
     8.3403   8.7731   9.2879   9.8192   9.9342  10.9380

          k = 0.3750-0.3750 0.1250 (  1087 PWs)   bands (ev):

   -44.6436 -21.3107 -21.3096 -21.2878  -5.7241  -5.2018  -5.1782  -3.8856
    -3.8187  -3.7069  -3.5979  -3.5614   3.4385   6.7219   6.8128   7.1842
     7.5543   8.7211   9.4532   9.4717  10.1516  10.5708

     highest occupied level (ev):    10.9610

!    total energy              =    -333.18581181 Ry
     estimated scf accuracy    <          4.8E-10 Ry

     The total energy is the sum of the following terms:
     one-electron contribution =     -78.45745678 Ry
     hartree contribution      =      67.22229910 Ry
     xc contribution           =     -49.69110338 Ry
     ewald contribution        =    -272.25955075 Ry

     convergence has been achieved in  10 iterations

     Forces acting on atoms (cartesian axes, Ry/au):

     atom    1 type  2   force =     0.00000000    0.00000000    0.00493421
     atom    2 type  3   force =     0.00000000    0.00000000   -0.00515100
     atom    3 type  1   force =     0.00000000    0.00000000   -0.00058679
     atom    4 type  1   force =     0.00000000    0.00000000   -0.00058679
     atom    5 type  1   force =     0.00000000    0.00000000    0.00139038

     Total force =     0.001619     Total SCF correction =     0.000010


     Computing stress (Cartesian axis) and pressure

          total   stress  (Ry/bohr**3)                   (kbar)     P=        7.61
  -0.00001138   0.00000000   0.00000000           -1.67        0.00        0.00
   0.00000000  -0.00001138   0.00000000            0.00       -1.67        0.00
   0.00000000   0.00000000   0.00017796            0.00        0.00       26.18

     Energy error            =      3.9E-06 Ry
     Gradient error          =      1.4E-03 Ry/Bohr

     number of scf cycles    =  15
     number of bfgs steps    =  14

     energy             old  =    -333.1858079163 Ry
     energy             new  =    -333.1858118097 Ry

     CASE: energy            _new < energy            _old

     new trust radius        =       0.0013261877 bohr
     new conv_thr            =       0.0000000010 Ry


ATOMIC_POSITIONS (angstrom)
Pb               0.0000000000        0.0000000000        0.0000000000    0   0   0
Ti               1.9375000000        1.9375000000        2.0731300000    0   0   0
O                0.0000000000        1.9375000000        2.2484794048
O                1.9375000000        0.0000000000        2.2484794048
O                1.9375000000        1.9375000000        0.2579922812


     Message from routine punch:
     Nothing written, as per user request (disk_io='none')
     NEW-OLD atomic charge density approx. for the potential

     total cpu time spent up to now is      105.3 secs

     Self-consistent Calculation

     iteration #  1     ecut=    30.00 Ry     beta= 0.70
     Davidson diagonalization with overlap
     ethr =  1.00E-06,  avg # of iterations =  2.0

     Threshold (ethr) on eigenvalues was too large:
     Diagonalizing with lowered threshold

     Davidson diagonalization with overlap
     ethr =  3.34E-10,  avg # of iterations =  6.8

     total cpu time spent up to now is      106.1 secs

     total energy              =    -333.18581226 Ry
     estimated scf accuracy    <       0.00000029 Ry

     iteration #  2     ecut=    30.00 Ry     beta= 0.70
     Davidson diagonalization with overlap
     ethr =  6.58E-10,  avg # of iterations =  2.3

     total cpu time spent up to now is      106.5 secs

     total energy              =    -333.18581231 Ry
     estimated scf accuracy    <       0.00000002 Ry

     iteration #  3     ecut=    30.00 Ry     beta= 0.70
     Davidson diagonalization with overlap
     ethr =  4.79E-11,  avg # of iterations =  2.8

     total cpu time spent up to now is      106.9 secs

     total energy              =    -333.18581232 Ry
     estimated scf accuracy    <          1.5E-09 Ry

     iteration #  4     ecut=    30.00 Ry     beta= 0.70
     Davidson diagonalization with overlap
     ethr =  3.50E-12,  avg # of iterations =  5.0

     total cpu time spent up to now is      107.3 secs

     End of self-consistent calculation

          k = 0.1250 0.1250 0.1250 (  1090 PWs)   bands (ev):

   -44.6462 -21.2926 -21.2567 -21.2558  -6.4534  -5.4168  -5.2526  -3.8646
    -3.8624  -3.8343  -3.6984  -3.5838   4.6907   7.1734   7.2919   8.0753
     9.0243   9.0486   9.6234   9.7454   9.9141  10.2543

          k = 0.1250 0.1250 0.3750 (  1095 PWs)   bands (ev):

   -44.6449 -21.3505 -21.2545 -21.2536  -6.0897  -5.3244  -5.0455  -3.9045
    -3.8473  -3.8329  -3.6740  -3.6610   3.9759   6.8408   7.1007   7.6831
     8.5395   8.6404   9.3184   9.8187   9.9821  10.9604

          k = 0.1250 0.3750 0.3750 (  1087 PWs)   bands (ev):

   -44.6436 -21.3469 -21.3100 -21.2520  -5.8528  -5.1950  -4.9545  -3.8876
    -3.8419  -3.7859  -3.6734  -3.4834   3.6238   6.5603   6.9191   7.1208
     7.4156   8.6127   9.3369   9.4202  10.1772  10.6507

          k = 0.3750 0.3750 0.3750 (  1082 PWs)   bands (ev):

   -44.6424 -21.3443 -21.3076 -21.3074  -5.4435  -5.3026  -5.1262  -3.7985
    -3.7944  -3.5436  -3.4288  -3.3961   4.0336   5.8736   5.9488   6.6009
     7.1082   7.1091   8.2899  10.5332  10.5954  10.6826

          k = 0.3750-0.1250 0.1250 (  1095 PWs)   bands (ev):

   -44.6449 -21.3139 -21.2901 -21.2541  -6.0312  -5.2866  -5.1967  -3.9171
    -3.8526  -3.8296  -3.6917  -3.5889   3.9367   6.7814   7.2826   7.8030
     8.3407   8.7727   9.2883   9.8198   9.9350  10.9378

          k = 0.3750-0.3750 0.1250 (  1087 PWs)   bands (ev):

   -44.6437 -21.3108 -21.3097 -21.2877  -5.7238  -5.2011  -5.1773  -3.8860
    -3.8192  -3.7076  -3.5987  -3.5619   3.4390   6.7221   6.8127   7.1840
     7.5538   8.7210   9.4532   9.4714  10.1512  10.5713

     highest occupied level (ev):    10.9604

!    total energy              =    -333.18581232 Ry
     estimated scf accuracy    <          8.2E-10 Ry

     The total energy is the sum of the following terms:
     one-electron contribution =     -78.45123869 Ry
     hartree contribution      =      67.21919138 Ry
     xc contribution           =     -49.69097099 Ry
     ewald contribution        =    -272.26279401 Ry

     convergence has been achieved in   4 iterations

     Forces acting on atoms (cartesian axes, Ry/au):

     atom    1 type  2   force =     0.00000000    0.00000000    0.00491454
     atom    2 type  3   force =     0.00000000    0.00000000   -0.00521095
     atom    3 type  1   force =     0.00000000    0.00000000   -0.00049637
     atom    4 type  1   force =     0.00000000    0.00000000   -0.00049637
     atom    5 type  1   force =     0.00000000    0.00000000    0.00128916

     Total force =     0.001468     Total SCF correction =     0.000020


     Computing stress (Cartesian axis) and pressure

          total   stress  (Ry/bohr**3)                   (kbar)     P=        7.59
  -0.00001124   0.00000000   0.00000000           -1.65        0.00        0.00
   0.00000000  -0.00001124   0.00000000            0.00       -1.65        0.00
   0.00000000   0.00000000   0.00017725            0.00        0.00       26.07

     Energy error            =      5.1E-07 Ry
     Gradient error          =      1.3E-03 Ry/Bohr

     number of scf cycles    =  16
     number of bfgs steps    =  15

     energy             old  =    -333.1858118097 Ry
     energy             new  =    -333.1858123168 Ry

     CASE: energy            _new < energy            _old

     new trust radius        =       0.0014588064 bohr
     new conv_thr            =       0.0000000010 Ry


ATOMIC_POSITIONS (angstrom)
Pb               0.0000000000        0.0000000000        0.0000000000    0   0   0
Ti               1.9375000000        1.9375000000        2.0731300000    0   0   0
O                0.0000000000        1.9375000000        2.2477074377
O                1.9375000000        0.0000000000        2.2477074377
O                1.9375000000        1.9375000000        0.2581629099


     Message from routine punch:
     Nothing written, as per user request (disk_io='none')
     NEW-OLD atomic charge density approx. for the potential

     total cpu time spent up to now is      108.8 secs

     Self-consistent Calculation

     iteration #  1     ecut=    30.00 Ry     beta= 0.70
     Davidson diagonalization with overlap
     ethr =  1.00E-06,  avg # of iterations =  2.0

     Threshold (ethr) on eigenvalues was too large:
     Diagonalizing with lowered threshold

     Davidson diagonalization with overlap
     ethr =  4.71E-10,  avg # of iterations =  6.0

     total cpu time spent up to now is      109.5 secs

     total energy              =    -333.18581377 Ry
     estimated scf accuracy    <       0.00000042 Ry

     iteration #  2     ecut=    30.00 Ry     beta= 0.70
     Davidson diagonalization with overlap
     ethr =  9.64E-10,  avg # of iterations =  4.2

     total cpu time spent up to now is      110.0 secs

     total energy              =    -333.18581384 Ry
     estimated scf accuracy    <       0.00000014 Ry

     iteration #  3     ecut=    30.00 Ry     beta= 0.70
     Davidson diagonalization with overlap
     ethr =  3.10E-10,  avg # of iterations =  4.5

     total cpu time spent up to now is      110.5 secs

     total energy              =    -333.18581387 Ry
     estimated scf accuracy    <       0.00000007 Ry

     iteration #  4     ecut=    30.00 Ry     beta= 0.70
     Davidson diagonalization with overlap
     ethr =  1.58E-10,  avg # of iterations =  4.0

     total cpu time spent up to now is      110.9 secs

     total energy              =    -333.18581389 Ry
     estimated scf accuracy    <          3.5E-09 Ry

     iteration #  5     ecut=    30.00 Ry     beta= 0.70
     Davidson diagonalization with overlap
     ethr =  7.86E-12,  avg # of iterations =  4.0

     total cpu time spent up to now is      111.4 secs

     End of self-consistent calculation

          k = 0.1250 0.1250 0.1250 (  1090 PWs)   bands (ev):

   -44.6454 -21.2921 -21.2560 -21.2551  -6.4526  -5.4161  -5.2529  -3.8652
    -3.8630  -3.8350  -3.6990  -3.5848   4.6904   7.1745   7.2921   8.0761
     9.0243   9.0489   9.6237   9.7461   9.9144  10.2537

          k = 0.1250 0.1250 0.3750 (  1095 PWs)   bands (ev):

   -44.6442 -21.3501 -21.2539 -21.2529  -6.0888  -5.3236  -5.0458  -3.9052
    -3.8480  -3.8336  -3.6751  -3.6616   3.9753   6.8411   7.1023   7.6843
     8.5383   8.6407   9.3182   9.8194   9.9829  10.9598

          k = 0.1250 0.3750 0.3750 (  1087 PWs)   bands (ev):

   -44.6429 -21.3464 -21.3093 -21.2513  -5.8521  -5.1939  -4.9547  -3.8882
    -3.8426  -3.7867  -3.6742  -3.4843   3.6234   6.5609   6.9190   7.1211
     7.4162   8.6129   9.3373   9.4199  10.1764  10.6509

          k = 0.3750 0.3750 0.3750 (  1082 PWs)   bands (ev):

   -44.6416 -21.3438 -21.3069 -21.3068  -5.4426  -5.3017  -5.1264  -3.7992
    -3.7951  -3.5442  -3.4295  -3.3969   4.0341   5.8737   5.9486   6.6017
     7.1075   7.1083   8.2885  10.5340  10.5955  10.6827

          k = 0.3750-0.1250 0.1250 (  1095 PWs)   bands (ev):

   -44.6442 -21.3132 -21.2896 -21.2534  -6.0305  -5.2857  -5.1965  -3.9177
    -3.8532  -3.8304  -3.6925  -3.5899   3.9366   6.7815   7.2827   7.8036
     8.3411   8.7723   9.2880   9.8204   9.9355  10.9374

          k = 0.3750-0.3750 0.1250 (  1087 PWs)   bands (ev):

   -44.6429 -21.3101 -21.3090 -21.2872  -5.7236  -5.2003  -5.1762  -3.8867
    -3.8199  -3.7085  -3.5998  -3.5627   3.4394   6.7226   6.8130   7.1836
     7.5530   8.7207   9.4529   9.4709  10.1506  10.5721

     highest occupied level (ev):    10.9598

!    total energy              =    -333.18581389 Ry
     estimated scf accuracy    <          5.4E-10 Ry

     The total energy is the sum of the following terms:
     one-electron contribution =     -78.44686730 Ry
     hartree contribution      =      67.21700735 Ry
     xc contribution           =     -49.69096199 Ry
     ewald contribution        =    -272.26499194 Ry

     convergence has been achieved in   5 iterations

     Forces acting on atoms (cartesian axes, Ry/au):

     atom    1 type  2   force =     0.00000000    0.00000000    0.00491778
     atom    2 type  3   force =     0.00000000    0.00000000   -0.00517489
     atom    3 type  1   force =     0.00000000    0.00000000   -0.00032259
     atom    4 type  1   force =     0.00000000    0.00000000   -0.00032259
     atom    5 type  1   force =     0.00000000    0.00000000    0.00090230

     Total force =     0.001011     Total SCF correction =     0.000006


     Computing stress (Cartesian axis) and pressure

          total   stress  (Ry/bohr**3)                   (kbar)     P=        7.58
  -0.00001135   0.00000000   0.00000000           -1.67        0.00        0.00
   0.00000000  -0.00001135   0.00000000            0.00       -1.67        0.00
   0.00000000   0.00000000   0.00017732            0.00        0.00       26.09

     Energy error            =      1.6E-06 Ry
     Gradient error          =      9.0E-04 Ry/Bohr

     bfgs converged in  17 scf cycles and  16 bfgs steps
     (criteria: energy <  1.0E-04 Ry, force <  1.0E-03 Ry/Bohr)

     End of BFGS Geometry Optimization

     Final energy             =    -333.1858138881 Ry

     File /home/bond/Work/Lab4/Problem2/PbTiO3_a_3.875_ecut_30_nk_4_displ_0.035/pwscf.bfgs deleted, as requested
Begin final coordinates

ATOMIC_POSITIONS (angstrom)
Pb               0.0000000000        0.0000000000        0.0000000000    0   0   0
Ti               1.9375000000        1.9375000000        2.0731300000    0   0   0
O                0.0000000000        1.9375000000        2.2477074377
O                1.9375000000        0.0000000000        2.2477074377
O                1.9375000000        1.9375000000        0.2581629099
End final coordinates


     Message from routine punch:
     Nothing written, as per user request (disk_io='none')

     init_run     :      1.14s CPU      1.32s WALL (       1 calls)
     electrons    :     71.55s CPU     82.99s WALL (      17 calls)
     update_pot   :      0.12s CPU      0.16s WALL (      16 calls)
     forces       :      2.55s CPU      2.95s WALL (      17 calls)
     stress       :     21.16s CPU     22.52s WALL (      17 calls)

     Called by init_run:
     wfcinit      :      0.08s CPU      0.09s WALL (       1 calls)
     potinit      :      0.08s CPU      0.09s WALL (       1 calls)
     hinit0       :      0.79s CPU      0.91s WALL (       1 calls)

     Called by electrons:
     c_bands      :     33.27s CPU     35.66s WALL (     164 calls)
     sum_band     :     21.79s CPU     26.50s WALL (     164 calls)
     v_of_rho     :      0.59s CPU      0.63s WALL (     178 calls)
     newd         :     17.11s CPU     21.87s WALL (     178 calls)
     mix_rho      :      0.35s CPU      0.37s WALL (     164 calls)

     Called by c_bands:
     init_us_2    :      0.91s CPU      0.97s WALL (    2178 calls)
     cegterg      :     31.38s CPU     33.67s WALL (     984 calls)

     Called by *egterg:
     cdiaghg      :      3.87s CPU      4.09s WALL (    5171 calls)
     h_psi        :     21.76s CPU     23.50s WALL (    5291 calls)
     s_psi        :      0.85s CPU      0.92s WALL (    5291 calls)
     g_psi        :      0.14s CPU      0.15s WALL (    4301 calls)

     Called by h_psi:
     h_psi:calbec :      1.63s CPU      1.78s WALL (    5291 calls)
     vloc_psi     :     19.00s CPU     20.46s WALL (    5291 calls)
     add_vuspsi   :      0.96s CPU      1.08s WALL (    5291 calls)

     General routines
     calbec       :      2.66s CPU      2.87s WALL (    8009 calls)
     fft          :      1.10s CPU      1.17s WALL (    1138 calls)
     ffts         :      0.10s CPU      0.11s WALL (     342 calls)
     fftw         :     17.75s CPU     19.19s WALL (  155774 calls)
     interpolate  :      0.23s CPU      0.25s WALL (     178 calls)

     Parallel routines

     PWSCF        :   1m38.79s CPU   1m52.76s WALL


   This run was terminated on:  13:10:27  21Oct2025            

=------------------------------------------------------------------------------=
   JOB DONE.
=------------------------------------------------------------------------------=
