
     Program PWSCF v.7.4.1 starts on  8Oct2025 at 21:46: 1 

     This program is part of the open-source Quantum ESPRESSO suite
     for quantum simulation of materials; please cite
         "P. Giannozzi et al., J. Phys.:Condens. Matter 21 395502 (2009);
         "P. Giannozzi et al., J. Phys.:Condens. Matter 29 465901 (2017);
         "P. Giannozzi et al., J. Chem. Phys. 152 154105 (2020);
          URL http://www.quantum-espresso.org", 
     in publications or presentations arising from this work. More details at
     http://www.quantum-espresso.org/quote

     Parallel version (MPI), running on     1 processors

     MPI processes distributed on     1 nodes
     862 MiB available memory on the printing compute node when the environment starts

     Waiting for input...
     Reading input from standard input
Warning: card &CELL ignored
Warning: card / ignored

     Current dimensions of program PWSCF are:
     Max number of different atomic species (ntypx) = 10
     Max number of k-points (npk) =  40000
     Max angular momentum in pseudopotentials (lmaxx) =  4
     Message from routine find_sym:
     Not a group! Trying with lower acceptance parameter...
     Message from routine find_sym:
     Still not a group! symmetry disabled

     Subspace diagonalization in iterative solution of the eigenvalue problem:
     a serial algorithm will be used


     G-vector sticks info
     --------------------
     sticks:   dense  smooth     PW     G-vecs:    dense   smooth      PW
     Sum         571     571    187                 8873     8873    1639

     Using Slab Decomposition



     bravais-lattice index     =            0
     lattice parameter (alat)  =       7.6789  a.u.
     unit-cell volume          =     320.1729 (a.u.)^3
     number of atoms/cell      =            2
     number of atomic types    =            1
     number of electrons       =        28.00
     number of Kohn-Sham states=           14
     kinetic-energy cutoff     =      35.0000  Ry
     charge density cutoff     =     140.0000  Ry
     scf convergence threshold =      1.0E-07
     mixing beta               =       0.5000
     number of iterations used =            8  plain     mixing
     Exchange-correlation=  SLA  PZ   NOGX NOGC
                           (   1   1   0   0   0   0   0)

     celldm(1)=   7.678915  celldm(2)=   0.000000  celldm(3)=   0.000000
     celldm(4)=   0.000000  celldm(5)=   0.000000  celldm(6)=   0.000000

     crystal axes: (cart. coord. in units of alat)
               a(1) = (   0.000000   0.707107   0.707107 )  
               a(2) = (   0.707107   0.000000   0.707107 )  
               a(3) = (   0.707107   0.707107   0.000000 )  

     reciprocal axes: (cart. coord. in units 2 pi/alat)
               b(1) = ( -0.707107  0.707107  0.707107 )  
               b(2) = (  0.707107 -0.707107  0.707107 )  
               b(3) = (  0.707107  0.707107 -0.707107 )  


     PseudoPot. # 1 for Ge read from file:
     /home/bond/Software/QE/qe-7.4.1/pseudo/ge_lda_v1.4.uspp.F.UPF
     MD5 check sum: bf9d52b59cc8a669818bb2b52e0c2ba0
     Pseudo is Ultrasoft + core correction, Zval = 14.0
     Generated by new atomic code, or converted to UPF format
     Using radial grid of  873 points,  6 beta functions with: 
                l(1) =   0
                l(2) =   0
                l(3) =   1
                l(4) =   1
                l(5) =   2
                l(6) =   2
     Q(r) pseudized with  8 coefficients,  rinner =    1.400   1.400   1.400
                                                       1.400   1.400

     atomic species   valence    mass     pseudopotential
     Ge               14.00    72.63000     Ge( 1.00)

     No symmetry found



   Cartesian axes

     site n.     atom                  positions (alat units)
         1        Ge     tau(   1) = (   0.0000000   0.0000000   0.0000000  )
         2        Ge     tau(   2) = (   0.3535542   0.3535542   0.3535542  )

     number of k points=   504

     Number of k-points >= 100: set verbosity='high' to print them.

     Dense  grid:     8873 G-vectors     FFT dimensions: (  32,  32,  32)

     Estimated max dynamical RAM per process >     155.54 MB

     Check: negative core charge=   -0.000018

     Initial potential from superposition of free atoms

     starting charge      27.9986, renormalised to      28.0000
     Starting wfcs are   18 randomized atomic wfcs

     total cpu time spent up to now is        5.0 secs

     Self-consistent Calculation

     iteration #  1     ecut=    35.00 Ry     beta= 0.50
     Davidson diagonalization with overlap
     ethr =  1.00E-02,  avg # of iterations =  1.7

     Threshold (ethr) on eigenvalues was too large:
     Diagonalizing with lowered threshold

     Davidson diagonalization with overlap
     ethr =  1.07E-04,  avg # of iterations =  2.0

     total cpu time spent up to now is       22.5 secs

     total energy              =    -426.16698439 Ry
     estimated scf accuracy    <       0.03187447 Ry

     iteration #  2     ecut=    35.00 Ry     beta= 0.50
     Davidson diagonalization with overlap
     ethr =  1.14E-04,  avg # of iterations =  1.0

     total cpu time spent up to now is       30.7 secs

     total energy              =    -426.16576969 Ry
     estimated scf accuracy    <       0.00572751 Ry

     iteration #  3     ecut=    35.00 Ry     beta= 0.50
     Davidson diagonalization with overlap
     ethr =  2.05E-05,  avg # of iterations =  2.0

     total cpu time spent up to now is       39.9 secs

     total energy              =    -426.16618285 Ry
     estimated scf accuracy    <       0.00006286 Ry

     iteration #  4     ecut=    35.00 Ry     beta= 0.50
     Davidson diagonalization with overlap
     ethr =  2.24E-07,  avg # of iterations =  3.9

     total cpu time spent up to now is       52.1 secs

     total energy              =    -426.16620490 Ry
     estimated scf accuracy    <       0.00000409 Ry

     iteration #  5     ecut=    35.00 Ry     beta= 0.50
     Davidson diagonalization with overlap
     ethr =  1.46E-08,  avg # of iterations =  2.9

     total cpu time spent up to now is       63.4 secs

     End of self-consistent calculation

     Number of k-points >= 100: set verbosity='high' to print the bands.

     highest occupied level (ev):     7.5526

!    total energy              =    -426.16620583 Ry
     estimated scf accuracy    <       0.00000006 Ry

     The total energy is the sum of the following terms:
     one-electron contribution =    -284.18070740 Ry
     hartree contribution      =     166.94457852 Ry
     xc contribution           =    -114.48279043 Ry
     ewald contribution        =    -194.44728652 Ry

     convergence has been achieved in   5 iterations

     Forces acting on atoms (cartesian axes, Ry/au):

     atom    1 type  1   force =     0.00028456   -0.00016699    0.00084098
     atom    2 type  1   force =    -0.00028456    0.00016699   -0.00084098

     Total force =     0.001278     Total SCF correction =     0.000871
     SCF correction compared to forces is large: reduce conv_thr to get better values


     Computing stress (Cartesian axis) and pressure

          total   stress  (Ry/bohr**3)                   (kbar)     P=      -53.12
  -0.00036144   0.00000026  -0.00000008          -53.17        0.04       -0.01
   0.00000026  -0.00036168   0.00000009            0.04      -53.21        0.01
  -0.00000008   0.00000009  -0.00036010           -0.01        0.01      -52.97

     Message from routine punch:
     Nothing written, as per user request (disk_io='none')

     init_run     :      4.73s CPU      4.93s WALL (       1 calls)
     electrons    :     57.36s CPU     58.34s WALL (       1 calls)
     forces       :      0.58s CPU      0.59s WALL (       1 calls)
     stress       :      3.06s CPU      3.09s WALL (       1 calls)

     Called by init_run:
     wfcinit      :      4.37s CPU      4.55s WALL (       1 calls)
     potinit      :      0.01s CPU      0.01s WALL (       1 calls)
     hinit0       :      0.27s CPU      0.27s WALL (       1 calls)

     Called by electrons:
     c_bands      :     48.53s CPU     49.41s WALL (       6 calls)
     sum_band     :      8.70s CPU      8.81s WALL (       6 calls)
     v_of_rho     :      0.01s CPU      0.01s WALL (       6 calls)
     newd         :      0.13s CPU      0.14s WALL (       6 calls)
     mix_rho      :      0.00s CPU      0.00s WALL (       6 calls)

     Called by c_bands:
     init_us_2    :      1.96s CPU      2.01s WALL (    7560 calls)
     cegterg      :     43.85s CPU     44.60s WALL (    3024 calls)

     Called by *egterg:
     cdiaghg      :      1.57s CPU      1.59s WALL (    9313 calls)
     h_psi        :     40.67s CPU     41.48s WALL (   10321 calls)
     s_psi        :      1.06s CPU      1.08s WALL (   10321 calls)
     g_psi        :      0.28s CPU      0.28s WALL (    6793 calls)

     Called by h_psi:
     h_psi:calbec :      1.26s CPU      1.28s WALL (   10321 calls)
     vloc_psi     :     38.04s CPU     38.81s WALL (   10321 calls)
     add_vuspsi   :      1.10s CPU      1.12s WALL (   10321 calls)

     General routines
     calbec       :      2.72s CPU      2.76s WALL (   21913 calls)
     fft          :      0.14s CPU      0.14s WALL (      33 calls)
     ffts         :      0.00s CPU      0.00s WALL (       6 calls)
     fftw         :     38.64s CPU     39.36s WALL (  266730 calls)

     Parallel routines

     PWSCF        :   1m 5.81s CPU   1m 7.05s WALL


   This run was terminated on:  21:47: 8   8Oct2025            

=------------------------------------------------------------------------------=
   JOB DONE.
=------------------------------------------------------------------------------=
