
     Program PWSCF v.7.4.1 starts on 20Oct2025 at 17:50:16 

     This program is part of the open-source Quantum ESPRESSO suite
     for quantum simulation of materials; please cite
         "P. Giannozzi et al., J. Phys.:Condens. Matter 21 395502 (2009);
         "P. Giannozzi et al., J. Phys.:Condens. Matter 29 465901 (2017);
         "P. Giannozzi et al., J. Chem. Phys. 152 154105 (2020);
          URL http://www.quantum-espresso.org", 
     in publications or presentations arising from this work. More details at
     http://www.quantum-espresso.org/quote

     Parallel version (MPI), running on     2 processors

     MPI processes distributed on     1 nodes
     442 MiB available memory on the printing compute node when the environment starts

     Waiting for input...
     Reading input from standard input

     Current dimensions of program PWSCF are:
     Max number of different atomic species (ntypx) = 10
     Max number of k-points (npk) =  40000
     Max angular momentum in pseudopotentials (lmaxx) =  4
     file Fe.pbe-nd-rrkjus.UPF: wavefunction(s)  4S renormalized
     Message from routine setup:
     using ibrav=0 with symmetry is DISCOURAGED, use correct ibrav instead

     R & G space division:  proc/nbgrp/npool/nimage =       2
     Subspace diagonalization in iterative solution of the eigenvalue problem:
     a serial algorithm will be used


     Parallelization info
     --------------------
     sticks:   dense  smooth     PW     G-vecs:    dense   smooth      PW
     Min         218      86     45                 2887      739     265
     Max         219      87     46                 2888      742     266
     Sum         437     173     91                 5775     1481     531

     Using Slab Decomposition



     bravais-lattice index     =            0
     lattice parameter (alat)  =       4.4187  a.u.
     unit-cell volume          =      66.4137 (a.u.)^3
     number of atoms/cell      =            1
     number of atomic types    =            1
     number of electrons       =         8.00
     number of Kohn-Sham states=            8
     kinetic-energy cutoff     =      30.0000  Ry
     charge density cutoff     =     300.0000  Ry
     scf convergence threshold =      1.0E-07
     mixing beta               =       0.5000
     number of iterations used =            8  plain     mixing
     energy convergence thresh.=      1.0E-04
     force convergence thresh. =      1.0E-03
     press convergence thresh. =      5.0E-01
     Exchange-correlation=  SLA  PW   PBE  PBE
                           (   1   4   3   4   0   0   0)
     nstep                     =           50


     celldm(1)=   4.418687  celldm(2)=   0.000000  celldm(3)=   0.000000
     celldm(4)=   0.000000  celldm(5)=   0.000000  celldm(6)=   0.000000

     crystal axes: (cart. coord. in units of alat)
               a(1) = (  -0.577350   0.577350   0.577350 )  
               a(2) = (   0.577350  -0.577350   0.577350 )  
               a(3) = (   0.577350   0.577350  -0.577350 )  

     reciprocal axes: (cart. coord. in units 2 pi/alat)
               b(1) = (  0.000000  0.866025  0.866025 )  
               b(2) = (  0.866025  0.000000  0.866025 )  
               b(3) = (  0.866025  0.866025  0.000000 )  


     PseudoPot. # 1 for Fe read from file:
     /home/bond/Software/QE/qe-7.4.1/pseudo/Fe.pbe-nd-rrkjus.UPF
     MD5 check sum: 398036227a04b607635f6f5e8dfd8242
     Pseudo is Ultrasoft + core correction, Zval =  8.0
     Generated by new atomic code, or converted to UPF format
     Using radial grid of  957 points,  6 beta functions with: 
                l(1) =   0
                l(2) =   0
                l(3) =   1
                l(4) =   1
                l(5) =   2
                l(6) =   2
     Q(r) pseudized with 0 coefficients 


     atomic species   valence    mass     pseudopotential
     Fe                8.00    55.84500     Fe( 1.00)

     Starting magnetic structure 
     atomic species   magnetization
     Fe              0.700

     48 Sym. Ops., with inversion, found



   Cartesian axes

     site n.     atom                  positions (alat units)
         1        Fe     tau(   1) = (   0.0000000   0.0000000   0.0000000  )

     number of k points=     3  Methfessel-Paxton smearing, width (Ry)=  0.0200
                       cart. coord. in units 2pi/alat
        k(    1) = (   0.0000000   0.0000000   0.0000000), wk =   0.1250000
        k(    2) = (  -0.4330127  -0.4330127   0.0000000), wk =   0.7500000
        k(    3) = (  -0.8660254  -0.8660254  -0.8660254), wk =   0.1250000

     Dense  grid:     5775 G-vectors     FFT dimensions: (  25,  25,  25)

     Smooth grid:     1481 G-vectors     FFT dimensions: (  15,  15,  15)

     Estimated max dynamical RAM per process >      14.74 MB

     Estimated total dynamical RAM >      29.49 MB

     Check: negative core charge=   -0.000001
     Generating pointlists ...
     new r_m :   0.4125 (alat units)  1.8227 (a.u.) for type    1

     Initial potential from superposition of free atoms

     starting charge       7.9994, renormalised to       8.0000
     Starting wfcs are    6 randomized atomic wfcs +    2 random wfcs

     total cpu time spent up to now is        0.9 secs

     Self-consistent Calculation

     iteration #  1     ecut=    30.00 Ry     beta= 0.50
     Davidson diagonalization with overlap
     ethr =  1.00E-02,  avg # of iterations =  6.3

     total cpu time spent up to now is        0.9 secs

     total energy              =     -55.61152095 Ry
     estimated scf accuracy    <       0.15153686 Ry

     total magnetization       =     3.75 Bohr mag/cell
     absolute magnetization    =     3.75 Bohr mag/cell

     iteration #  2     ecut=    30.00 Ry     beta= 0.50
     Davidson diagonalization with overlap
     ethr =  1.89E-03,  avg # of iterations =  2.8

     total cpu time spent up to now is        1.0 secs

     total energy              =     -55.65599386 Ry
     estimated scf accuracy    <       0.01114939 Ry

     total magnetization       =     3.76 Bohr mag/cell
     absolute magnetization    =     3.76 Bohr mag/cell

     iteration #  3     ecut=    30.00 Ry     beta= 0.50
     Davidson diagonalization with overlap
     ethr =  1.39E-04,  avg # of iterations =  3.5

     total cpu time spent up to now is        1.1 secs

     total energy              =     -55.66280667 Ry
     estimated scf accuracy    <       0.00437046 Ry

     total magnetization       =     3.66 Bohr mag/cell
     absolute magnetization    =     3.66 Bohr mag/cell

     iteration #  4     ecut=    30.00 Ry     beta= 0.50
     Davidson diagonalization with overlap
     ethr =  5.46E-05,  avg # of iterations =  1.2
     Minimization algorithm failed to find Fermi energy: reverting to bisection
     Possible cause: smearing is larger than the electronic band-gap.

     total cpu time spent up to now is        1.2 secs

     total energy              =     -55.66712259 Ry
     estimated scf accuracy    <       0.00026149 Ry

     total magnetization       =     3.50 Bohr mag/cell
     absolute magnetization    =     3.50 Bohr mag/cell

     iteration #  5     ecut=    30.00 Ry     beta= 0.50
     Davidson diagonalization with overlap
     ethr =  3.27E-06,  avg # of iterations =  6.3
     Minimization algorithm failed to find Fermi energy: reverting to bisection
     Possible cause: smearing is larger than the electronic band-gap.

     total cpu time spent up to now is        1.3 secs

     total energy              =     -55.66725395 Ry
     estimated scf accuracy    <       0.00003817 Ry

     total magnetization       =     3.50 Bohr mag/cell
     absolute magnetization    =     3.50 Bohr mag/cell

     iteration #  6     ecut=    30.00 Ry     beta= 0.50
     Davidson diagonalization with overlap
     ethr =  4.77E-07,  avg # of iterations =  2.0
     Minimization algorithm failed to find Fermi energy: reverting to bisection
     Possible cause: smearing is larger than the electronic band-gap.

     total cpu time spent up to now is        1.4 secs

     total energy              =     -55.66725867 Ry
     estimated scf accuracy    <       0.00000371 Ry

     total magnetization       =     3.50 Bohr mag/cell
     absolute magnetization    =     3.50 Bohr mag/cell

     iteration #  7     ecut=    30.00 Ry     beta= 0.50
     Davidson diagonalization with overlap
     ethr =  4.63E-08,  avg # of iterations =  3.0
     Minimization algorithm failed to find Fermi energy: reverting to bisection
     Possible cause: smearing is larger than the electronic band-gap.

     total cpu time spent up to now is        1.5 secs

     total energy              =     -55.66726522 Ry
     estimated scf accuracy    <       0.00000494 Ry

     total magnetization       =     3.50 Bohr mag/cell
     absolute magnetization    =     3.50 Bohr mag/cell

     iteration #  8     ecut=    30.00 Ry     beta= 0.50
     Davidson diagonalization with overlap
     ethr =  4.63E-08,  avg # of iterations =  1.5
     Minimization algorithm failed to find Fermi energy: reverting to bisection
     Possible cause: smearing is larger than the electronic band-gap.

     total cpu time spent up to now is        1.6 secs

     total energy              =     -55.66726692 Ry
     estimated scf accuracy    <       0.00000140 Ry

     total magnetization       =     3.50 Bohr mag/cell
     absolute magnetization    =     3.50 Bohr mag/cell

     iteration #  9     ecut=    30.00 Ry     beta= 0.50
     Davidson diagonalization with overlap
     ethr =  1.75E-08,  avg # of iterations =  1.0
     Minimization algorithm failed to find Fermi energy: reverting to bisection
     Possible cause: smearing is larger than the electronic band-gap.

     Magnetic moment per site  (integrated on atomic sphere of radius R)
     atom   1 (R=0.413)  charge=  6.4061  magn=  2.9817

     total cpu time spent up to now is        1.7 secs

     End of self-consistent calculation

 ------ SPIN UP ------------


          k = 0.0000 0.0000 0.0000 (   177 PWs)   bands (ev):

     6.3269  13.7909  13.7909  13.7909  15.2459  15.2459  41.4390  41.4390

          k =-0.4330-0.4330 0.0000 (   186 PWs)   bands (ev):

    10.2605  12.3422  15.3954  15.5432  16.1538  17.2470  24.8888  34.8305

          k =-0.8660-0.8660-0.8660 (   188 PWs)   bands (ev):

    10.2222  10.2222  16.8910  16.8910  16.8910  26.8717  26.8717  26.8717

 ------ SPIN DOWN ----------


          k = 0.0000 0.0000 0.0000 (   177 PWs)   bands (ev):

     8.1776  16.5090  16.5090  16.5090  19.1840  19.1840  43.2476  43.2476

          k =-0.4330-0.4330 0.0000 (   186 PWs)   bands (ev):

    12.7766  14.9236  18.0879  18.9735  19.4988  20.3071  27.5243  37.0090

          k =-0.8660-0.8660-0.8660 (   188 PWs)   bands (ev):

    13.4316  13.4316  19.9208  19.9208  19.9208  28.4604  28.4604  28.4604

     the Fermi energy is    17.3623 ev

!    total energy              =     -55.66726712 Ry
     estimated scf accuracy    <       0.00000004 Ry
     smearing contrib. (-TS)   =      -0.00084658 Ry
     internal energy E=F+TS    =     -55.66642054 Ry

     The total energy is F=E-TS. E is the sum of the following terms:
     one-electron contribution =      10.75185335 Ry
     hartree contribution      =       5.97852196 Ry
     xc contribution           =     -26.74821732 Ry
     ewald contribution        =     -45.64857853 Ry

     total magnetization       =     3.50 Bohr mag/cell
     absolute magnetization    =     3.50 Bohr mag/cell

     convergence has been achieved in   9 iterations

     Forces acting on atoms (cartesian axes, Ry/au):

     atom    1 type  1   force =     0.00000000    0.00000000    0.00000000

     Total force =     0.000000     Total SCF correction =     0.000000


     Computing stress (Cartesian axis) and pressure

          total   stress  (Ry/bohr**3)                   (kbar)     P=      824.68
   0.00560607  -0.00000000  -0.00000000          824.68       -0.00       -0.00
  -0.00000000   0.00560607  -0.00000000           -0.00      824.68       -0.00
  -0.00000000  -0.00000000   0.00560607           -0.00       -0.00      824.68


     BFGS Geometry Optimization
     Energy error            =      1.2E-01 Ry
     Gradient error          =      0.0E+00 Ry/Bohr
     Cell gradient error     =      8.2E+02 kbar

     number of scf cycles    =   1
     number of bfgs steps    =   0

     enthalpy           new  =     -55.6672671169 Ry

     new trust radius        =       0.2284324053 bohr
     new conv_thr            =       0.0000001000 Ry

     new unit-cell volume =     98.43419 a.u.^3 (    14.58644 Ang^3 )
     density =      6.35747 g/cm^3

CELL_PARAMETERS (angstrom)
  -1.539204968   1.539204968   1.539204968
   1.539204968  -1.539204968   1.539204968
   1.539204968   1.539204968  -1.539204968

ATOMIC_POSITIONS (angstrom)
Fe               0.0000000000        0.0000000000        0.0000000000


     Message from routine punch:
     Nothing written, as per user request (disk_io='none')
     NEW-OLD atomic charge density approx. for the potential
     New effective cutoffs (rho, wfc):  228.65   22.75

     Check: negative core charge=   -0.000004
     Generating pointlists ...

     total cpu time spent up to now is        1.9 secs

     Self-consistent Calculation

     iteration #  1     ecut=    30.00 Ry     beta= 0.50
     Davidson diagonalization with overlap
     ethr =  1.00E-06,  avg # of iterations =  6.5

     total cpu time spent up to now is        2.0 secs

     total energy              =     -55.71347434 Ry
     estimated scf accuracy    <       0.00989971 Ry

     total magnetization       =     3.76 Bohr mag/cell
     absolute magnetization    =     3.76 Bohr mag/cell

     iteration #  2     ecut=    30.00 Ry     beta= 0.50
     Davidson diagonalization with overlap
     ethr =  1.24E-04,  avg # of iterations =  1.3

     total cpu time spent up to now is        2.0 secs

     total energy              =     -55.71538352 Ry
     estimated scf accuracy    <       0.00208632 Ry

     total magnetization       =     3.75 Bohr mag/cell
     absolute magnetization    =     3.75 Bohr mag/cell

     iteration #  3     ecut=    30.00 Ry     beta= 0.50
     Davidson diagonalization with overlap
     ethr =  2.61E-05,  avg # of iterations =  1.2

     total cpu time spent up to now is        2.1 secs

     total energy              =     -55.71568363 Ry
     estimated scf accuracy    <       0.00035435 Ry

     total magnetization       =     3.75 Bohr mag/cell
     absolute magnetization    =     3.75 Bohr mag/cell

     iteration #  4     ecut=    30.00 Ry     beta= 0.50
     Davidson diagonalization with overlap
     ethr =  4.43E-06,  avg # of iterations =  1.3

     total cpu time spent up to now is        2.1 secs

     total energy              =     -55.71571786 Ry
     estimated scf accuracy    <       0.00000153 Ry

     total magnetization       =     3.75 Bohr mag/cell
     absolute magnetization    =     3.75 Bohr mag/cell

     iteration #  5     ecut=    30.00 Ry     beta= 0.50
     Davidson diagonalization with overlap
     ethr =  1.92E-08,  avg # of iterations =  2.8

     total cpu time spent up to now is        2.2 secs

     total energy              =     -55.71572365 Ry
     estimated scf accuracy    <       0.00000024 Ry

     total magnetization       =     3.75 Bohr mag/cell
     absolute magnetization    =     3.75 Bohr mag/cell

     iteration #  6     ecut=    30.00 Ry     beta= 0.50
     Davidson diagonalization with overlap
     ethr =  2.97E-09,  avg # of iterations =  2.7

     Magnetic moment per site  (integrated on atomic sphere of radius R)
     atom   1 (R=0.413)  charge=  6.0491  magn=  3.1045

     total cpu time spent up to now is        2.2 secs

     End of self-consistent calculation

 ------ SPIN UP ------------


          k = 0.0000 0.0000 0.0000 (   177 PWs)   bands (ev):

     1.9274   7.5788   7.5788   7.5788   8.2922   8.2922  31.1790  31.1790

          k =-0.3798-0.3798-0.0000 (   186 PWs)   bands (ev):

     5.4869   6.8063   8.3727   8.4183   9.4632   9.6109  14.6452  25.0378

          k =-0.7596-0.7596-0.7596 (   188 PWs)   bands (ev):

     5.6179   5.6179   9.2763   9.2763   9.2763  17.5032  17.5032  17.5032

 ------ SPIN DOWN ----------


          k = 0.0000 0.0000 0.0000 (   177 PWs)   bands (ev):

     3.5031  10.5292  10.5292  10.5292  12.2575  12.2575  32.6760  32.6760

          k =-0.3798-0.3798-0.0000 (   186 PWs)   bands (ev):

     7.9883   9.6070  11.2200  12.0648  12.4069  12.7315  17.1632  26.8762

          k =-0.7596-0.7596-0.7596 (   188 PWs)   bands (ev):

     8.8810   8.8810  12.5156  12.5156  12.5156  18.8996  18.8996  18.8996

     the Fermi energy is    10.5856 ev

!    total energy              =     -55.71572433 Ry
     estimated scf accuracy    <          5.9E-09 Ry
     smearing contrib. (-TS)   =      -0.00083482 Ry
     internal energy E=F+TS    =     -55.71488951 Ry

     The total energy is F=E-TS. E is the sum of the following terms:
     one-electron contribution =       2.76448721 Ry
     hartree contribution      =       8.01198604 Ry
     xc contribution           =     -26.45408227 Ry
     ewald contribution        =     -40.03728048 Ry

     total magnetization       =     3.75 Bohr mag/cell
     absolute magnetization    =     3.75 Bohr mag/cell

     convergence has been achieved in   6 iterations

     Forces acting on atoms (cartesian axes, Ry/au):

     atom    1 type  1   force =     0.00000000    0.00000000    0.00000000

     Total force =     0.000000     Total SCF correction =     0.000000


     Computing stress (Cartesian axis) and pressure

          total   stress  (Ry/bohr**3)                   (kbar)     P=     -107.28
  -0.00072927  -0.00000000  -0.00000000         -107.28       -0.00       -0.00
  -0.00000000  -0.00072927  -0.00000000           -0.00     -107.28       -0.00
  -0.00000000  -0.00000000  -0.00072927           -0.00       -0.00     -107.28

     Energy error            =      4.8E-02 Ry
     Gradient error          =      0.0E+00 Ry/Bohr
     Cell gradient error     =      1.1E+02 kbar

     number of scf cycles    =   2
     number of bfgs steps    =   1

     enthalpy           old  =     -55.6672671169 Ry
     enthalpy           new  =     -55.7157243321 Ry

     CASE: enthalpy          _new < enthalpy          _old

     new trust radius        =       0.0352809466 bohr
     new conv_thr            =       0.0000000010 Ry

     new unit-cell volume =     93.27644 a.u.^3 (    13.82214 Ang^3 )
     density =      6.70900 g/cm^3

CELL_PARAMETERS (angstrom)
  -1.511837558   1.511837558   1.511837558
   1.511837558  -1.511837558   1.511837558
   1.511837558   1.511837558  -1.511837558

ATOMIC_POSITIONS (angstrom)
Fe               0.0000000000        0.0000000000        0.0000000000


     Message from routine punch:
     Nothing written, as per user request (disk_io='none')
     NEW-OLD atomic charge density approx. for the potential
     New effective cutoffs (rho, wfc):  237.00   23.58
     Generating pointlists ...

     total cpu time spent up to now is        2.4 secs

     Self-consistent Calculation

     iteration #  1     ecut=    30.00 Ry     beta= 0.50
     Davidson diagonalization with overlap
     ethr =  1.00E-06,  avg # of iterations =  4.5

     total cpu time spent up to now is        2.4 secs

     total energy              =     -55.71838748 Ry
     estimated scf accuracy    <       0.00009559 Ry

     total magnetization       =     3.75 Bohr mag/cell
     absolute magnetization    =     3.75 Bohr mag/cell

     iteration #  2     ecut=    30.00 Ry     beta= 0.50
     Davidson diagonalization with overlap
     ethr =  1.19E-06,  avg # of iterations =  1.8

     total cpu time spent up to now is        2.5 secs

     total energy              =     -55.71841293 Ry
     estimated scf accuracy    <       0.00001651 Ry

     total magnetization       =     3.75 Bohr mag/cell
     absolute magnetization    =     3.75 Bohr mag/cell

     iteration #  3     ecut=    30.00 Ry     beta= 0.50
     Davidson diagonalization with overlap
     ethr =  2.06E-07,  avg # of iterations =  1.0

     total cpu time spent up to now is        2.6 secs

     total energy              =     -55.71841612 Ry
     estimated scf accuracy    <       0.00000352 Ry

     total magnetization       =     3.75 Bohr mag/cell
     absolute magnetization    =     3.75 Bohr mag/cell

     iteration #  4     ecut=    30.00 Ry     beta= 0.50
     Davidson diagonalization with overlap
     ethr =  4.40E-08,  avg # of iterations =  1.2

     total cpu time spent up to now is        2.6 secs

     total energy              =     -55.71841681 Ry
     estimated scf accuracy    <       0.00000002 Ry

     total magnetization       =     3.75 Bohr mag/cell
     absolute magnetization    =     3.75 Bohr mag/cell

     iteration #  5     ecut=    30.00 Ry     beta= 0.50
     Davidson diagonalization with overlap
     ethr =  2.82E-10,  avg # of iterations =  3.8

     total cpu time spent up to now is        2.8 secs

     total energy              =     -55.71841702 Ry
     estimated scf accuracy    <          2.8E-09 Ry

     total magnetization       =     3.75 Bohr mag/cell
     absolute magnetization    =     3.75 Bohr mag/cell

     iteration #  6     ecut=    30.00 Ry     beta= 0.50
     Davidson diagonalization with overlap
     ethr =  3.51E-11,  avg # of iterations =  2.8

     Magnetic moment per site  (integrated on atomic sphere of radius R)
     atom   1 (R=0.413)  charge=  6.0820  magn=  3.1168

     total cpu time spent up to now is        2.9 secs

     End of self-consistent calculation

 ------ SPIN UP ------------


          k = 0.0000 0.0000 0.0000 (   177 PWs)   bands (ev):

     2.3996   8.3081   8.3081   8.3081   9.1120   9.1120  32.4268  32.4268

          k =-0.3867-0.3867-0.0000 (   186 PWs)   bands (ev):

     6.0527   7.4644   9.1952   9.2554  10.3373  10.3600  15.8155  26.2248

          k =-0.7733-0.7733-0.7733 (   188 PWs)   bands (ev):

     6.1841   6.1841  10.1552  10.1552  10.1552  18.5756  18.5756  18.5756

 ------ SPIN DOWN ----------


          k = 0.0000 0.0000 0.0000 (   177 PWs)   bands (ev):

     4.0105  11.2708  11.2708  11.2708  13.0911  13.0911  33.9582  33.9582

          k =-0.3867-0.3867-0.0000 (   186 PWs)   bands (ev):

     8.5698  10.2730  11.9864  12.8993  13.2591  13.6502  18.3760  28.0973

          k =-0.7733-0.7733-0.7733 (   188 PWs)   bands (ev):

     9.4432   9.4432  13.4154  13.4154  13.4154  20.0061  20.0061  20.0061

     the Fermi energy is    11.3267 ev

!    total energy              =     -55.71841706 Ry
     estimated scf accuracy    <          1.8E-10 Ry
     smearing contrib. (-TS)   =      -0.00086442 Ry
     internal energy E=F+TS    =     -55.71755265 Ry

     The total energy is F=E-TS. E is the sum of the following terms:
     one-electron contribution =       3.81318087 Ry
     hartree contribution      =       7.72073654 Ry
     xc contribution           =     -26.48943136 Ry
     ewald contribution        =     -40.76203869 Ry

     total magnetization       =     3.75 Bohr mag/cell
     absolute magnetization    =     3.75 Bohr mag/cell

     convergence has been achieved in   6 iterations

     Forces acting on atoms (cartesian axes, Ry/au):

     atom    1 type  1   force =     0.00000000    0.00000000    0.00000000

     Total force =     0.000000     Total SCF correction =     0.000000


     Computing stress (Cartesian axis) and pressure

          total   stress  (Ry/bohr**3)                   (kbar)     P=      -42.67
  -0.00029005  -0.00000000  -0.00000000          -42.67       -0.00       -0.00
  -0.00000000  -0.00029005  -0.00000000           -0.00      -42.67       -0.00
  -0.00000000  -0.00000000  -0.00029005           -0.00       -0.00      -42.67

     Energy error            =      2.7E-03 Ry
     Gradient error          =      0.0E+00 Ry/Bohr
     Cell gradient error     =      4.3E+01 kbar

     number of scf cycles    =   3
     number of bfgs steps    =   2

     enthalpy           old  =     -55.7157243321 Ry
     enthalpy           new  =     -55.7184170643 Ry

     CASE: enthalpy          _new < enthalpy          _old

     new trust radius        =       0.0217699125 bohr
     new conv_thr            =       0.0000000010 Ry

     new unit-cell volume =     90.15806 a.u.^3 (    13.36005 Ang^3 )
     density =      6.94105 g/cm^3

CELL_PARAMETERS (angstrom)
  -1.494798490   1.494798490   1.494798490
   1.494798490  -1.494798490   1.494798490
   1.494798490   1.494798490  -1.494798490

ATOMIC_POSITIONS (angstrom)
Fe               0.0000000000        0.0000000000        0.0000000000


     Message from routine punch:
     Nothing written, as per user request (disk_io='none')
     NEW-OLD atomic charge density approx. for the potential
     New effective cutoffs (rho, wfc):  242.43   24.12
     Generating pointlists ...

     total cpu time spent up to now is        3.2 secs

     Self-consistent Calculation

     iteration #  1     ecut=    30.00 Ry     beta= 0.50
     Davidson diagonalization with overlap
     ethr =  1.00E-06,  avg # of iterations =  4.3

     total cpu time spent up to now is        3.3 secs

     total energy              =     -55.71881482 Ry
     estimated scf accuracy    <       0.00004174 Ry

     total magnetization       =     3.75 Bohr mag/cell
     absolute magnetization    =     3.75 Bohr mag/cell

     iteration #  2     ecut=    30.00 Ry     beta= 0.50
     Davidson diagonalization with overlap
     ethr =  5.22E-07,  avg # of iterations =  1.8

     total cpu time spent up to now is        3.4 secs

     total energy              =     -55.71882580 Ry
     estimated scf accuracy    <       0.00000670 Ry

     total magnetization       =     3.75 Bohr mag/cell
     absolute magnetization    =     3.75 Bohr mag/cell

     iteration #  3     ecut=    30.00 Ry     beta= 0.50
     Davidson diagonalization with overlap
     ethr =  8.38E-08,  avg # of iterations =  1.0

     total cpu time spent up to now is        3.4 secs

     total energy              =     -55.71882705 Ry
     estimated scf accuracy    <       0.00000149 Ry

     total magnetization       =     3.75 Bohr mag/cell
     absolute magnetization    =     3.75 Bohr mag/cell

     iteration #  4     ecut=    30.00 Ry     beta= 0.50
     Davidson diagonalization with overlap
     ethr =  1.86E-08,  avg # of iterations =  1.2

     total cpu time spent up to now is        3.5 secs

     total energy              =     -55.71882728 Ry
     estimated scf accuracy    <       0.00000001 Ry

     total magnetization       =     3.75 Bohr mag/cell
     absolute magnetization    =     3.75 Bohr mag/cell

     iteration #  5     ecut=    30.00 Ry     beta= 0.50
     Davidson diagonalization with overlap
     ethr =  1.46E-10,  avg # of iterations =  3.7

     Magnetic moment per site  (integrated on atomic sphere of radius R)
     atom   1 (R=0.413)  charge=  6.1057  magn=  3.1256

     total cpu time spent up to now is        3.6 secs

     End of self-consistent calculation

 ------ SPIN UP ------------


          k = 0.0000 0.0000 0.0000 (   177 PWs)   bands (ev):

     2.7159   8.7857   8.7857   8.7857   9.6501   9.6501  33.2388  33.2388

          k =-0.3911-0.3911-0.0000 (   186 PWs)   bands (ev):

     6.4225   7.8939   9.7352   9.8053  10.8202  10.9500  16.5884  26.9980

          k =-0.7821-0.7821-0.7821 (   188 PWs)   bands (ev):

     6.5518   6.5518  10.7332  10.7332  10.7332  19.2833  19.2833  19.2833

 ------ SPIN DOWN ----------


          k = 0.0000 0.0000 0.0000 (   177 PWs)   bands (ev):

     4.3509  11.7566  11.7566  11.7566  13.6384  13.6384  34.7941  34.7941

          k =-0.3911-0.3911-0.0000 (   186 PWs)   bands (ev):

     8.9512  10.7081  12.4965  13.4472  13.8189  14.2544  19.1762  28.8944

          k =-0.7821-0.7821-0.7821 (   188 PWs)   bands (ev):

     9.8099   9.8099  14.0071  14.0071  14.0071  20.7368  20.7368  20.7368

     the Fermi energy is    11.8121 ev

!    total energy              =     -55.71882737 Ry
     estimated scf accuracy    <          8.5E-10 Ry
     smearing contrib. (-TS)   =      -0.00088426 Ry
     internal energy E=F+TS    =     -55.71794311 Ry

     The total energy is F=E-TS. E is the sum of the following terms:
     one-electron contribution =       4.48281363 Ry
     hartree contribution      =       7.53923833 Ry
     xc contribution           =     -26.51331373 Ry
     ewald contribution        =     -41.22668134 Ry

     total magnetization       =     3.75 Bohr mag/cell
     absolute magnetization    =     3.75 Bohr mag/cell

     convergence has been achieved in   5 iterations

     Forces acting on atoms (cartesian axes, Ry/au):

     atom    1 type  1   force =     0.00000000    0.00000000    0.00000000

     Total force =     0.000000     Total SCF correction =     0.000000


     Computing stress (Cartesian axis) and pressure

          total   stress  (Ry/bohr**3)                   (kbar)     P=        5.34
   0.00003633   0.00000000   0.00000000            5.34        0.00        0.00
   0.00000000   0.00003633   0.00000000            0.00        5.34        0.00
   0.00000000   0.00000000   0.00003633            0.00        0.00        5.34

     Energy error            =      4.1E-04 Ry
     Gradient error          =      0.0E+00 Ry/Bohr
     Cell gradient error     =      5.3E+00 kbar

     number of scf cycles    =   4
     number of bfgs steps    =   3

     enthalpy           old  =     -55.7184170643 Ry
     enthalpy           new  =     -55.7188273677 Ry

     CASE: enthalpy          _new < enthalpy          _old

     new trust radius        =       0.0023616682 bohr
     new conv_thr            =       0.0000000010 Ry

     new unit-cell volume =     90.49484 a.u.^3 (    13.40995 Ang^3 )
     density =      6.91522 g/cm^3

CELL_PARAMETERS (angstrom)
  -1.496657447   1.496657447   1.496657447
   1.496657447  -1.496657447   1.496657447
   1.496657447   1.496657447  -1.496657447

ATOMIC_POSITIONS (angstrom)
Fe               0.0000000000        0.0000000000        0.0000000000


     Message from routine punch:
     Nothing written, as per user request (disk_io='none')
     NEW-OLD atomic charge density approx. for the potential
     New effective cutoffs (rho, wfc):  241.83   24.06
     Generating pointlists ...

     total cpu time spent up to now is        3.8 secs

     Self-consistent Calculation

     iteration #  1     ecut=    30.00 Ry     beta= 0.50
     Davidson diagonalization with overlap
     ethr =  1.00E-06,  avg # of iterations =  2.3

     Threshold (ethr) on eigenvalues was too large:
     Diagonalizing with lowered threshold

     Davidson diagonalization with overlap
     ethr =  9.09E-09,  avg # of iterations =  2.0

     total cpu time spent up to now is        3.8 secs

     total energy              =     -55.71883338 Ry
     estimated scf accuracy    <       0.00000050 Ry

     total magnetization       =     3.75 Bohr mag/cell
     absolute magnetization    =     3.75 Bohr mag/cell

     iteration #  2     ecut=    30.00 Ry     beta= 0.50
     Davidson diagonalization with overlap
     ethr =  6.27E-09,  avg # of iterations =  2.0

     total cpu time spent up to now is        3.9 secs

     total energy              =     -55.71883351 Ry
     estimated scf accuracy    <       0.00000008 Ry

     total magnetization       =     3.75 Bohr mag/cell
     absolute magnetization    =     3.75 Bohr mag/cell

     iteration #  3     ecut=    30.00 Ry     beta= 0.50
     Davidson diagonalization with overlap
     ethr =  9.91E-10,  avg # of iterations =  1.0

     total cpu time spent up to now is        4.0 secs

     total energy              =     -55.71883352 Ry
     estimated scf accuracy    <       0.00000002 Ry

     total magnetization       =     3.75 Bohr mag/cell
     absolute magnetization    =     3.75 Bohr mag/cell

     iteration #  4     ecut=    30.00 Ry     beta= 0.50
     Davidson diagonalization with overlap
     ethr =  2.19E-10,  avg # of iterations =  1.2

     Magnetic moment per site  (integrated on atomic sphere of radius R)
     atom   1 (R=0.413)  charge=  6.1030  magn=  3.1246

     total cpu time spent up to now is        4.0 secs

     End of self-consistent calculation

 ------ SPIN UP ------------


          k = 0.0000 0.0000 0.0000 (   177 PWs)   bands (ev):

     2.6804   8.7327   8.7327   8.7327   9.5904   9.5904  33.1487  33.1487

          k =-0.3906-0.3906-0.0000 (   186 PWs)   bands (ev):

     6.3814   7.8463   9.6752   9.7443  10.7662  10.8845  16.5023  26.9122

          k =-0.7812-0.7812-0.7812 (   188 PWs)   bands (ev):

     6.5111   6.5111  10.6689  10.6689  10.6689  19.2043  19.2043  19.2043

 ------ SPIN DOWN ----------


          k = 0.0000 0.0000 0.0000 (   177 PWs)   bands (ev):

     4.3131  11.7026  11.7026  11.7026  13.5774  13.5774  34.7017  34.7017

          k =-0.3906-0.3906-0.0000 (   186 PWs)   bands (ev):

     8.9089  10.6599  12.4398  13.3862  13.7565  14.1872  19.0872  28.8062

          k =-0.7812-0.7812-0.7812 (   188 PWs)   bands (ev):

     9.7693   9.7693  13.9412  13.9412  13.9412  20.6557  20.6557  20.6557

     the Fermi energy is    11.7582 ev

!    total energy              =     -55.71883352 Ry
     estimated scf accuracy    <          1.2E-10 Ry
     smearing contrib. (-TS)   =      -0.00088253 Ry
     internal energy E=F+TS    =     -55.71795099 Ry

     The total energy is F=E-TS. E is the sum of the following terms:
     one-electron contribution =       4.40911573 Ry
     hartree contribution      =       7.55903281 Ry
     xc contribution           =     -26.51062471 Ry
     ewald contribution        =     -41.17547482 Ry

     total magnetization       =     3.75 Bohr mag/cell
     absolute magnetization    =     3.75 Bohr mag/cell

     convergence has been achieved in   4 iterations

     Forces acting on atoms (cartesian axes, Ry/au):

     atom    1 type  1   force =     0.00000000    0.00000000    0.00000000

     Total force =     0.000000     Total SCF correction =     0.000000


     Computing stress (Cartesian axis) and pressure

          total   stress  (Ry/bohr**3)                   (kbar)     P=       -0.29
  -0.00000200  -0.00000000  -0.00000000           -0.29       -0.00       -0.00
  -0.00000000  -0.00000200  -0.00000000           -0.00       -0.29       -0.00
  -0.00000000  -0.00000000  -0.00000200           -0.00       -0.00       -0.29

     Energy error            =      6.2E-06 Ry
     Gradient error          =      0.0E+00 Ry/Bohr
     Cell gradient error     =      2.9E-01 kbar

     bfgs converged in   5 scf cycles and   4 bfgs steps
     (criteria: energy <  1.0E-04 Ry, force <  1.0E-03 Ry/Bohr, cell <  5.0E-01 kbar)

     End of BFGS Geometry Optimization

     Final enthalpy           =     -55.7188335250 Ry

     File /home/bond/Work/Lab4/1A/Fe_bcc_nk_2_relax/pwscf.bfgs deleted, as requested
Begin final coordinates
     new unit-cell volume =     90.49484 a.u.^3 (    13.40995 Ang^3 )
     density =      6.91522 g/cm^3

CELL_PARAMETERS (angstrom)
  -1.496657447   1.496657447   1.496657447
   1.496657447  -1.496657447   1.496657447
   1.496657447   1.496657447  -1.496657447

ATOMIC_POSITIONS (angstrom)
Fe               0.0000000000        0.0000000000        0.0000000000
End final coordinates


     Message from routine punch:
     Nothing written, as per user request (disk_io='none')

     Final scf calculation at the relaxed structure.
     The G-vectors are recalculated for the final unit cell
     Results may differ from those at the preceding step.

     Parallelization info
     --------------------
     sticks:   dense  smooth     PW     G-vecs:    dense   smooth      PW
     Min         270     108     49                 3967      992     313
     Max         271     109     50                 3968      993     314
     Sum         541     217     99                 7935     1985     627

     Using Slab Decomposition



     bravais-lattice index     =            0
     lattice parameter (alat)  =       4.4187  a.u.
     unit-cell volume          =      90.4948 (a.u.)^3
     number of atoms/cell      =            1
     number of atomic types    =            1
     number of electrons       =         8.00
     number of Kohn-Sham states=            8
     kinetic-energy cutoff     =      30.0000  Ry
     charge density cutoff     =     300.0000  Ry
     scf convergence threshold =      1.0E-09
     mixing beta               =       0.5000
     number of iterations used =            8  plain     mixing
     press convergence thresh. =      5.0E-01
     Exchange-correlation=  SLA  PW   PBE  PBE
                           (   1   4   3   4   0   0   0)

     celldm(1)=   4.418687  celldm(2)=   0.000000  celldm(3)=   0.000000
     celldm(4)=   0.000000  celldm(5)=   0.000000  celldm(6)=   0.000000

     crystal axes: (cart. coord. in units of alat)
               a(1) = (  -0.640071   0.640071   0.640071 )  
               a(2) = (   0.640071  -0.640071   0.640071 )  
               a(3) = (   0.640071   0.640071  -0.640071 )  

     reciprocal axes: (cart. coord. in units 2 pi/alat)
               b(1) = (  0.000000  0.781164  0.781164 )  
               b(2) = (  0.781164  0.000000  0.781164 )  
               b(3) = (  0.781164  0.781164  0.000000 )  


     PseudoPot. # 1 for Fe read from file:
     /home/bond/Software/QE/qe-7.4.1/pseudo/Fe.pbe-nd-rrkjus.UPF
     MD5 check sum: 398036227a04b607635f6f5e8dfd8242
     Pseudo is Ultrasoft + core correction, Zval =  8.0
     Generated by new atomic code, or converted to UPF format
     Using radial grid of  957 points,  6 beta functions with: 
                l(1) =   0
                l(2) =   0
                l(3) =   1
                l(4) =   1
                l(5) =   2
                l(6) =   2
     Q(r) pseudized with 0 coefficients 


     atomic species   valence    mass     pseudopotential
     Fe                8.00    55.84500     Fe( 1.00)

     Starting magnetic structure 
     atomic species   magnetization
     Fe              0.512

     48 Sym. Ops., with inversion, found



   Cartesian axes

     site n.     atom                  positions (alat units)
         1        Fe     tau(   1) = (   0.0000000   0.0000000   0.0000000  )

     number of k points=     3  Methfessel-Paxton smearing, width (Ry)=  0.0200
                       cart. coord. in units 2pi/alat
        k(    1) = (   0.0000000   0.0000000   0.0000000), wk =   0.1250000
        k(    2) = (  -0.3905818  -0.3905818  -0.0000000), wk =   0.7500000
        k(    3) = (  -0.7811636  -0.7811636  -0.7811636), wk =   0.1250000

     Dense  grid:     7935 G-vectors     FFT dimensions: (  27,  27,  27)

     Smooth grid:     1985 G-vectors     FFT dimensions: (  18,  18,  18)

     Estimated max dynamical RAM per process >      19.13 MB

     Estimated total dynamical RAM >      38.27 MB

     Check: negative core charge=   -0.000010
     Generating pointlists ...

     Initial potential from superposition of free atoms

     starting charge       7.9994, renormalised to       8.0000
     Starting wfcs are    6 randomized atomic wfcs +    2 random wfcs

     total cpu time spent up to now is        4.4 secs

     Self-consistent Calculation

     iteration #  1     ecut=    30.00 Ry     beta= 0.50
     Davidson diagonalization with overlap
     c_bands:  1 eigenvalues not converged
     c_bands:  1 eigenvalues not converged
     c_bands:  1 eigenvalues not converged
     c_bands:  1 eigenvalues not converged
     ethr =  1.00E-06,  avg # of iterations = 19.0

     total cpu time spent up to now is        4.6 secs

     total energy              =     -55.52820046 Ry
     estimated scf accuracy    <       0.46281680 Ry

     total magnetization       =     3.16 Bohr mag/cell
     absolute magnetization    =     3.16 Bohr mag/cell

     iteration #  2     ecut=    30.00 Ry     beta= 0.50
     Davidson diagonalization with overlap
     ethr =  5.79E-03,  avg # of iterations =  2.0

     total cpu time spent up to now is        4.7 secs

     total energy              =     -55.68566835 Ry
     estimated scf accuracy    <       0.23688972 Ry

     total magnetization       =     3.33 Bohr mag/cell
     absolute magnetization    =     3.33 Bohr mag/cell

     iteration #  3     ecut=    30.00 Ry     beta= 0.50
     Davidson diagonalization with overlap
     ethr =  2.96E-03,  avg # of iterations =  1.2

     total cpu time spent up to now is        4.8 secs

     total energy              =     -55.71770044 Ry
     estimated scf accuracy    <       0.00826870 Ry

     total magnetization       =     3.77 Bohr mag/cell
     absolute magnetization    =     3.77 Bohr mag/cell

     iteration #  4     ecut=    30.00 Ry     beta= 0.50
     Davidson diagonalization with overlap
     ethr =  1.03E-04,  avg # of iterations =  2.0

     total cpu time spent up to now is        4.8 secs

     total energy              =     -55.71959451 Ry
     estimated scf accuracy    <       0.00127765 Ry

     total magnetization       =     3.75 Bohr mag/cell
     absolute magnetization    =     3.75 Bohr mag/cell

     iteration #  5     ecut=    30.00 Ry     beta= 0.50
     Davidson diagonalization with overlap
     ethr =  1.60E-05,  avg # of iterations =  2.0

     total cpu time spent up to now is        4.9 secs

     total energy              =     -55.71992440 Ry
     estimated scf accuracy    <       0.00009302 Ry

     total magnetization       =     3.75 Bohr mag/cell
     absolute magnetization    =     3.75 Bohr mag/cell

     iteration #  6     ecut=    30.00 Ry     beta= 0.50
     Davidson diagonalization with overlap
     ethr =  1.16E-06,  avg # of iterations =  1.3

     total cpu time spent up to now is        5.0 secs

     total energy              =     -55.71993008 Ry
     estimated scf accuracy    <       0.00001679 Ry

     total magnetization       =     3.75 Bohr mag/cell
     absolute magnetization    =     3.75 Bohr mag/cell

     iteration #  7     ecut=    30.00 Ry     beta= 0.50
     Davidson diagonalization with overlap
     ethr =  2.10E-07,  avg # of iterations =  2.5

     total cpu time spent up to now is        5.1 secs

     total energy              =     -55.71993609 Ry
     estimated scf accuracy    <       0.00000022 Ry

     total magnetization       =     3.75 Bohr mag/cell
     absolute magnetization    =     3.75 Bohr mag/cell

     iteration #  8     ecut=    30.00 Ry     beta= 0.50
     Davidson diagonalization with overlap
     ethr =  2.80E-09,  avg # of iterations =  3.8

     total cpu time spent up to now is        5.1 secs

     total energy              =     -55.71993649 Ry
     estimated scf accuracy    <       0.00000006 Ry

     total magnetization       =     3.75 Bohr mag/cell
     absolute magnetization    =     3.75 Bohr mag/cell

     iteration #  9     ecut=    30.00 Ry     beta= 0.50
     Davidson diagonalization with overlap
     ethr =  7.86E-10,  avg # of iterations =  2.5

     Magnetic moment per site  (integrated on atomic sphere of radius R)
     atom   1 (R=0.413)  charge=  6.1037  magn=  3.1242

     total cpu time spent up to now is        5.2 secs

     End of self-consistent calculation

 ------ SPIN UP ------------


          k = 0.0000 0.0000 0.0000 (   249 PWs)   bands (ev):

     2.6807   8.7281   8.7281   8.7281   9.5857   9.5857  33.1461  33.1461

          k =-0.3906-0.3906-0.0000 (   250 PWs)   bands (ev):

     6.3792   7.8421   9.6712   9.7396  10.7665  10.8802  16.5002  26.9118

          k =-0.7812-0.7812-0.7812 (   236 PWs)   bands (ev):

     6.5085   6.5085  10.6652  10.6652  10.6652  19.2052  19.2053  19.2053

 ------ SPIN DOWN ----------


          k = 0.0000 0.0000 0.0000 (   249 PWs)   bands (ev):

     4.3236  11.6994  11.6994  11.6994  13.5749  13.5749  34.7117  34.7117

          k =-0.3906-0.3906-0.0000 (   250 PWs)   bands (ev):

     8.9126  10.6579  12.4506  13.3834  13.7529  14.1833  19.0896  28.8176

          k =-0.7812-0.7812-0.7812 (   236 PWs)   bands (ev):

     9.7719   9.7719  13.9382  13.9382  13.9382  20.6652  20.6652  20.6652

     the Fermi energy is    11.7548 ev

!    total energy              =     -55.71993656 Ry
     estimated scf accuracy    <          7.2E-10 Ry
     smearing contrib. (-TS)   =      -0.00089232 Ry
     internal energy E=F+TS    =     -55.71904423 Ry

     The total energy is F=E-TS. E is the sum of the following terms:
     one-electron contribution =       4.40843880 Ry
     hartree contribution      =       7.55788551 Ry
     xc contribution           =     -26.50989373 Ry
     ewald contribution        =     -41.17547482 Ry

     total magnetization       =     3.75 Bohr mag/cell
     absolute magnetization    =     3.75 Bohr mag/cell

     convergence has been achieved in   9 iterations

     Forces acting on atoms (cartesian axes, Ry/au):

     atom    1 type  1   force =     0.00000000    0.00000000    0.00000000

     Total force =     0.000000     Total SCF correction =     0.000000


     Computing stress (Cartesian axis) and pressure

          total   stress  (Ry/bohr**3)                   (kbar)     P=       -3.43
  -0.00002332  -0.00000000  -0.00000000           -3.43       -0.00       -0.00
  -0.00000000  -0.00002332  -0.00000000           -0.00       -3.43       -0.00
  -0.00000000  -0.00000000  -0.00002332           -0.00       -0.00       -3.43

     Message from routine punch:
     Nothing written, as per user request (disk_io='none')

     init_run     :      0.67s CPU      0.88s WALL (       2 calls)
     electrons    :      2.47s CPU      3.08s WALL (       6 calls)
     update_pot   :      0.05s CPU      0.05s WALL (       4 calls)
     forces       :      0.16s CPU      0.20s WALL (       6 calls)
     stress       :      0.75s CPU      0.85s WALL (       6 calls)

     Called by init_run:
     wfcinit      :      0.01s CPU      0.01s WALL (       2 calls)
     potinit      :      0.15s CPU      0.18s WALL (       2 calls)
     hinit0       :      0.45s CPU      0.59s WALL (       2 calls)

     Called by electrons:
     c_bands      :      0.56s CPU      0.69s WALL (      40 calls)
     sum_band     :      0.98s CPU      1.22s WALL (      40 calls)
     v_of_rho     :      0.44s CPU      0.55s WALL (      45 calls)
     newd         :      0.56s CPU      0.69s WALL (      45 calls)
     mix_rho      :      0.03s CPU      0.04s WALL (      40 calls)

     Called by c_bands:
     init_us_2    :      0.02s CPU      0.02s WALL (     564 calls)
     cegterg      :      0.51s CPU      0.63s WALL (     240 calls)

     Called by *egterg:
     cdiaghg      :      0.06s CPU      0.08s WALL (     903 calls)
     h_psi        :      0.38s CPU      0.47s WALL (     945 calls)
     s_psi        :      0.01s CPU      0.01s WALL (     945 calls)
     g_psi        :      0.00s CPU      0.00s WALL (     693 calls)

     Called by h_psi:
     h_psi:calbec :      0.02s CPU      0.02s WALL (     945 calls)
     vloc_psi     :      0.34s CPU      0.43s WALL (     945 calls)
     add_vuspsi   :      0.01s CPU      0.01s WALL (     945 calls)

     General routines
     calbec       :      0.04s CPU      0.04s WALL (    1797 calls)
     fft          :      0.31s CPU      0.39s WALL (    1359 calls)
     ffts         :      0.11s CPU      0.13s WALL (     170 calls)
     fftw         :      0.34s CPU      0.42s WALL (   12622 calls)
     interpolate  :      0.12s CPU      0.14s WALL (      90 calls)

     Parallel routines

     PWSCF        :      4.30s CPU      5.36s WALL


   This run was terminated on:  17:50:21  20Oct2025            

=------------------------------------------------------------------------------=
   JOB DONE.
=------------------------------------------------------------------------------=
