
     Program PWSCF v.7.4.1 starts on 20Oct2025 at 18:32:25 

     This program is part of the open-source Quantum ESPRESSO suite
     for quantum simulation of materials; please cite
         "P. Giannozzi et al., J. Phys.:Condens. Matter 21 395502 (2009);
         "P. Giannozzi et al., J. Phys.:Condens. Matter 29 465901 (2017);
         "P. Giannozzi et al., J. Chem. Phys. 152 154105 (2020);
          URL http://www.quantum-espresso.org", 
     in publications or presentations arising from this work. More details at
     http://www.quantum-espresso.org/quote

     Parallel version (MPI), running on     2 processors

     MPI processes distributed on     1 nodes
     148 MiB available memory on the printing compute node when the environment starts

     Waiting for input...
     Reading input from standard input

     Current dimensions of program PWSCF are:
     Max number of different atomic species (ntypx) = 10
     Max number of k-points (npk) =  40000
     Max angular momentum in pseudopotentials (lmaxx) =  4
     file Fe.pbe-nd-rrkjus.UPF: wavefunction(s)  4S renormalized
     Message from routine setup:
     using ibrav=0 with symmetry is DISCOURAGED, use correct ibrav instead

     R & G space division:  proc/nbgrp/npool/nimage =       2
     Subspace diagonalization in iterative solution of the eigenvalue problem:
     a serial algorithm will be used


     Parallelization info
     --------------------
     sticks:   dense  smooth     PW     G-vecs:    dense   smooth      PW
     Min         218      86     45                 2887      739     265
     Max         219      87     46                 2888      742     266
     Sum         437     173     91                 5775     1481     531

     Using Slab Decomposition



     bravais-lattice index     =            0
     lattice parameter (alat)  =       4.4187  a.u.
     unit-cell volume          =      66.4137 (a.u.)^3
     number of atoms/cell      =            1
     number of atomic types    =            1
     number of electrons       =         8.00
     number of Kohn-Sham states=            8
     kinetic-energy cutoff     =      30.0000  Ry
     charge density cutoff     =     300.0000  Ry
     scf convergence threshold =      1.0E-07
     mixing beta               =       0.5000
     number of iterations used =            8  plain     mixing
     energy convergence thresh.=      1.0E-04
     force convergence thresh. =      1.0E-03
     press convergence thresh. =      5.0E-01
     Exchange-correlation=  SLA  PW   PBE  PBE
                           (   1   4   3   4   0   0   0)
     nstep                     =           50


     celldm(1)=   4.418687  celldm(2)=   0.000000  celldm(3)=   0.000000
     celldm(4)=   0.000000  celldm(5)=   0.000000  celldm(6)=   0.000000

     crystal axes: (cart. coord. in units of alat)
               a(1) = (  -0.577350   0.577350   0.577350 )  
               a(2) = (   0.577350  -0.577350   0.577350 )  
               a(3) = (   0.577350   0.577350  -0.577350 )  

     reciprocal axes: (cart. coord. in units 2 pi/alat)
               b(1) = (  0.000000  0.866025  0.866025 )  
               b(2) = (  0.866025  0.000000  0.866025 )  
               b(3) = (  0.866025  0.866025  0.000000 )  


     PseudoPot. # 1 for Fe read from file:
     /home/bond/Software/QE/qe-7.4.1/pseudo/Fe.pbe-nd-rrkjus.UPF
     MD5 check sum: 398036227a04b607635f6f5e8dfd8242
     Pseudo is Ultrasoft + core correction, Zval =  8.0
     Generated by new atomic code, or converted to UPF format
     Using radial grid of  957 points,  6 beta functions with: 
                l(1) =   0
                l(2) =   0
                l(3) =   1
                l(4) =   1
                l(5) =   2
                l(6) =   2
     Q(r) pseudized with 0 coefficients 


     atomic species   valence    mass     pseudopotential
     Fe                8.00    55.84500     Fe( 1.00)

     Starting magnetic structure 
     atomic species   magnetization
     Fe              0.700

     48 Sym. Ops., with inversion, found



   Cartesian axes

     site n.     atom                  positions (alat units)
         1        Fe     tau(   1) = (   0.0000000   0.0000000   0.0000000  )

     number of k points=   104  Methfessel-Paxton smearing, width (Ry)=  0.0200

     Number of k-points >= 100: set verbosity='high' to print them.

     Dense  grid:     5775 G-vectors     FFT dimensions: (  25,  25,  25)

     Smooth grid:     1481 G-vectors     FFT dimensions: (  15,  15,  15)

     Estimated max dynamical RAM per process >      17.01 MB

     Estimated total dynamical RAM >      34.02 MB

     Check: negative core charge=   -0.000001
     Generating pointlists ...
     new r_m :   0.4125 (alat units)  1.8227 (a.u.) for type    1

     Initial potential from superposition of free atoms

     starting charge       7.9994, renormalised to       8.0000
     Starting wfcs are    6 randomized atomic wfcs +    2 random wfcs

     total cpu time spent up to now is        0.8 secs

     Self-consistent Calculation

     iteration #  1     ecut=    30.00 Ry     beta= 0.50
     Davidson diagonalization with overlap
     ethr =  1.00E-02,  avg # of iterations =  4.5

     total cpu time spent up to now is        1.2 secs

     total energy              =     -55.66785457 Ry
     estimated scf accuracy    <       0.29676976 Ry

     total magnetization       =     2.86 Bohr mag/cell
     absolute magnetization    =     2.86 Bohr mag/cell

     iteration #  2     ecut=    30.00 Ry     beta= 0.50
     Davidson diagonalization with overlap
     ethr =  3.71E-03,  avg # of iterations =  1.6

     total cpu time spent up to now is        1.5 secs

     total energy              =     -55.75735685 Ry
     estimated scf accuracy    <       0.03524050 Ry

     total magnetization       =     2.64 Bohr mag/cell
     absolute magnetization    =     2.64 Bohr mag/cell

     iteration #  3     ecut=    30.00 Ry     beta= 0.50
     Davidson diagonalization with overlap
     ethr =  4.41E-04,  avg # of iterations =  1.3

     total cpu time spent up to now is        1.8 secs

     total energy              =     -55.77965855 Ry
     estimated scf accuracy    <       0.01102365 Ry

     total magnetization       =     2.48 Bohr mag/cell
     absolute magnetization    =     2.51 Bohr mag/cell

     iteration #  4     ecut=    30.00 Ry     beta= 0.50
     Davidson diagonalization with overlap
     ethr =  1.38E-04,  avg # of iterations =  1.4

     total cpu time spent up to now is        2.1 secs

     total energy              =     -55.78757036 Ry
     estimated scf accuracy    <       0.00053917 Ry

     total magnetization       =     2.16 Bohr mag/cell
     absolute magnetization    =     2.26 Bohr mag/cell

     iteration #  5     ecut=    30.00 Ry     beta= 0.50
     Davidson diagonalization with overlap
     ethr =  6.74E-06,  avg # of iterations =  5.7

     total cpu time spent up to now is        2.5 secs

     total energy              =     -55.78770540 Ry
     estimated scf accuracy    <       0.00040838 Ry

     total magnetization       =     2.15 Bohr mag/cell
     absolute magnetization    =     2.26 Bohr mag/cell

     iteration #  6     ecut=    30.00 Ry     beta= 0.50
     Davidson diagonalization with overlap
     ethr =  5.10E-06,  avg # of iterations =  1.8

     total cpu time spent up to now is        2.8 secs

     total energy              =     -55.78817258 Ry
     estimated scf accuracy    <       0.00010857 Ry

     total magnetization       =     2.11 Bohr mag/cell
     absolute magnetization    =     2.21 Bohr mag/cell

     iteration #  7     ecut=    30.00 Ry     beta= 0.50
     Davidson diagonalization with overlap
     ethr =  1.36E-06,  avg # of iterations =  1.5

     total cpu time spent up to now is        3.1 secs

     total energy              =     -55.78820495 Ry
     estimated scf accuracy    <       0.00001805 Ry

     total magnetization       =     2.12 Bohr mag/cell
     absolute magnetization    =     2.22 Bohr mag/cell

     iteration #  8     ecut=    30.00 Ry     beta= 0.50
     Davidson diagonalization with overlap
     ethr =  2.26E-07,  avg # of iterations =  3.2

     total cpu time spent up to now is        3.4 secs

     total energy              =     -55.78821393 Ry
     estimated scf accuracy    <       0.00000240 Ry

     total magnetization       =     2.13 Bohr mag/cell
     absolute magnetization    =     2.22 Bohr mag/cell

     iteration #  9     ecut=    30.00 Ry     beta= 0.50
     Davidson diagonalization with overlap
     ethr =  3.00E-08,  avg # of iterations =  3.3

     total cpu time spent up to now is        3.8 secs

     total energy              =     -55.78821526 Ry
     estimated scf accuracy    <       0.00000231 Ry

     total magnetization       =     2.13 Bohr mag/cell
     absolute magnetization    =     2.22 Bohr mag/cell

     iteration # 10     ecut=    30.00 Ry     beta= 0.50
     Davidson diagonalization with overlap
     ethr =  2.88E-08,  avg # of iterations =  1.0

     total cpu time spent up to now is        4.0 secs

     total energy              =     -55.78821598 Ry
     estimated scf accuracy    <       0.00000211 Ry

     total magnetization       =     2.13 Bohr mag/cell
     absolute magnetization    =     2.22 Bohr mag/cell

     iteration # 11     ecut=    30.00 Ry     beta= 0.50
     Davidson diagonalization with overlap
     ethr =  2.63E-08,  avg # of iterations =  1.9

     Magnetic moment per site  (integrated on atomic sphere of radius R)
     atom   1 (R=0.413)  charge=  6.3582  magn=  2.1503

     total cpu time spent up to now is        4.3 secs

     End of self-consistent calculation

     Number of k-points >= 100: set verbosity='high' to print the bands.

     the Fermi energy is    16.3664 ev

!    total energy              =     -55.78821772 Ry
     estimated scf accuracy    <       0.00000006 Ry
     smearing contrib. (-TS)   =      -0.00001277 Ry
     internal energy E=F+TS    =     -55.78820495 Ry

     The total energy is F=E-TS. E is the sum of the following terms:
     one-electron contribution =      10.66040694 Ry
     hartree contribution      =       5.75018774 Ry
     xc contribution           =     -26.55022110 Ry
     ewald contribution        =     -45.64857853 Ry

     total magnetization       =     2.12 Bohr mag/cell
     absolute magnetization    =     2.21 Bohr mag/cell

     convergence has been achieved in  11 iterations

     Forces acting on atoms (cartesian axes, Ry/au):

     atom    1 type  1   force =     0.00000000    0.00000000    0.00000000

     Total force =     0.000000     Total SCF correction =     0.000000


     Computing stress (Cartesian axis) and pressure

          total   stress  (Ry/bohr**3)                   (kbar)     P=      422.29
   0.00287069  -0.00000000  -0.00000000          422.29       -0.00       -0.00
  -0.00000000   0.00287069  -0.00000000           -0.00      422.29       -0.00
  -0.00000000  -0.00000000   0.00287069           -0.00       -0.00      422.29


     BFGS Geometry Optimization
     Energy error            =      3.6E-02 Ry
     Gradient error          =      0.0E+00 Ry/Bohr
     Cell gradient error     =      4.2E+02 kbar

     number of scf cycles    =   1
     number of bfgs steps    =   0

     enthalpy           new  =     -55.7882177194 Ry

     new trust radius        =       0.1169730548 bohr
     new conv_thr            =       0.0000001000 Ry

     new unit-cell volume =     81.76350 a.u.^3 (    12.11610 Ang^3 )
     density =      7.65368 g/cm^3

CELL_PARAMETERS (angstrom)
  -1.446885917   1.446885917   1.446885917
   1.446885917  -1.446885917   1.446885917
   1.446885917   1.446885917  -1.446885917

ATOMIC_POSITIONS (angstrom)
Fe               0.0000000000        0.0000000000        0.0000000000


     Message from routine punch:
     Nothing written, as per user request (disk_io='none')
     NEW-OLD atomic charge density approx. for the potential
     New effective cutoffs (rho, wfc):  258.76   26.11

     Check: negative core charge=   -0.000002
     Generating pointlists ...

     total cpu time spent up to now is        4.5 secs

     Self-consistent Calculation

     iteration #  1     ecut=    30.00 Ry     beta= 0.50
     Davidson diagonalization with overlap
     ethr =  1.00E-06,  avg # of iterations =  7.2

     total cpu time spent up to now is        5.3 secs

     total energy              =     -55.79908345 Ry
     estimated scf accuracy    <       0.00193012 Ry

     total magnetization       =     2.26 Bohr mag/cell
     absolute magnetization    =     2.37 Bohr mag/cell

     iteration #  2     ecut=    30.00 Ry     beta= 0.50
     Davidson diagonalization with overlap
     ethr =  2.41E-05,  avg # of iterations =  1.0

     total cpu time spent up to now is        5.5 secs

     total energy              =     -55.79975035 Ry
     estimated scf accuracy    <       0.00120575 Ry

     total magnetization       =     2.32 Bohr mag/cell
     absolute magnetization    =     2.44 Bohr mag/cell

     iteration #  3     ecut=    30.00 Ry     beta= 0.50
     Davidson diagonalization with overlap
     ethr =  1.51E-05,  avg # of iterations =  1.0

     total cpu time spent up to now is        5.8 secs

     total energy              =     -55.80013469 Ry
     estimated scf accuracy    <       0.00056169 Ry

     total magnetization       =     2.35 Bohr mag/cell
     absolute magnetization    =     2.48 Bohr mag/cell

     iteration #  4     ecut=    30.00 Ry     beta= 0.50
     Davidson diagonalization with overlap
     ethr =  7.02E-06,  avg # of iterations =  1.7

     total cpu time spent up to now is        6.0 secs

     total energy              =     -55.79972252 Ry
     estimated scf accuracy    <       0.00012274 Ry

     total magnetization       =     2.46 Bohr mag/cell
     absolute magnetization    =     2.62 Bohr mag/cell

     iteration #  5     ecut=    30.00 Ry     beta= 0.50
     Davidson diagonalization with overlap
     ethr =  1.53E-06,  avg # of iterations =  2.8

     total cpu time spent up to now is        6.4 secs

     total energy              =     -55.80073160 Ry
     estimated scf accuracy    <       0.00022817 Ry

     total magnetization       =     2.55 Bohr mag/cell
     absolute magnetization    =     2.74 Bohr mag/cell

     iteration #  6     ecut=    30.00 Ry     beta= 0.50
     Davidson diagonalization with overlap
     ethr =  1.53E-06,  avg # of iterations =  1.9

     total cpu time spent up to now is        6.6 secs

     total energy              =     -55.80106137 Ry
     estimated scf accuracy    <       0.00003663 Ry

     total magnetization       =     2.51 Bohr mag/cell
     absolute magnetization    =     2.67 Bohr mag/cell

     iteration #  7     ecut=    30.00 Ry     beta= 0.50
     Davidson diagonalization with overlap
     ethr =  4.58E-07,  avg # of iterations =  1.2

     total cpu time spent up to now is        6.9 secs

     total energy              =     -55.80108664 Ry
     estimated scf accuracy    <       0.00000404 Ry

     total magnetization       =     2.52 Bohr mag/cell
     absolute magnetization    =     2.69 Bohr mag/cell

     iteration #  8     ecut=    30.00 Ry     beta= 0.50
     Davidson diagonalization with overlap
     ethr =  5.05E-08,  avg # of iterations =  1.7

     total cpu time spent up to now is        7.1 secs

     total energy              =     -55.80108854 Ry
     estimated scf accuracy    <       0.00000111 Ry

     total magnetization       =     2.52 Bohr mag/cell
     absolute magnetization    =     2.69 Bohr mag/cell

     iteration #  9     ecut=    30.00 Ry     beta= 0.50
     Davidson diagonalization with overlap
     ethr =  1.39E-08,  avg # of iterations =  2.5

     Magnetic moment per site  (integrated on atomic sphere of radius R)
     atom   1 (R=0.413)  charge=  6.1452  magn=  2.5839

     total cpu time spent up to now is        7.5 secs

     End of self-consistent calculation

     Number of k-points >= 100: set verbosity='high' to print the bands.

     the Fermi energy is    12.4907 ev

!    total energy              =     -55.80108999 Ry
     estimated scf accuracy    <       0.00000004 Ry
     smearing contrib. (-TS)   =       0.00031383 Ry
     internal energy E=F+TS    =     -55.80140382 Ry

     The total energy is F=E-TS. E is the sum of the following terms:
     one-electron contribution =       6.37332343 Ry
     hartree contribution      =       6.86410367 Ry
     xc contribution           =     -26.44695807 Ry
     ewald contribution        =     -42.59187285 Ry

     total magnetization       =     2.53 Bohr mag/cell
     absolute magnetization    =     2.70 Bohr mag/cell

     convergence has been achieved in   9 iterations

     Forces acting on atoms (cartesian axes, Ry/au):

     atom    1 type  1   force =     0.00000000    0.00000000    0.00000000

     Total force =     0.000000     Total SCF correction =     0.000000


     Computing stress (Cartesian axis) and pressure

          total   stress  (Ry/bohr**3)                   (kbar)     P=      -45.36
  -0.00030838  -0.00000000  -0.00000000          -45.36       -0.00       -0.00
  -0.00000000  -0.00030838  -0.00000000           -0.00      -45.36       -0.00
  -0.00000000  -0.00000000  -0.00030838           -0.00       -0.00      -45.36

     Energy error            =      1.3E-02 Ry
     Gradient error          =      0.0E+00 Ry/Bohr
     Cell gradient error     =      4.5E+01 kbar

     number of scf cycles    =   2
     number of bfgs steps    =   1

     enthalpy           old  =     -55.7882177194 Ry
     enthalpy           new  =     -55.8010899888 Ry

     CASE: enthalpy          _new < enthalpy          _old

     new trust radius        =       0.0133015066 bohr
     new conv_thr            =       0.0000000010 Ry

     new unit-cell volume =     79.97259 a.u.^3 (    11.85071 Ang^3 )
     density =      7.82508 g/cm^3

CELL_PARAMETERS (angstrom)
  -1.436243865   1.436243865   1.436243865
   1.436243865  -1.436243865   1.436243865
   1.436243865   1.436243865  -1.436243865

ATOMIC_POSITIONS (angstrom)
Fe               0.0000000000        0.0000000000        0.0000000000


     Message from routine punch:
     Nothing written, as per user request (disk_io='none')
     NEW-OLD atomic charge density approx. for the potential
     New effective cutoffs (rho, wfc):  262.60   26.50

     Check: negative core charge=   -0.000002
     Generating pointlists ...

     total cpu time spent up to now is        7.7 secs

     Self-consistent Calculation

     iteration #  1     ecut=    30.00 Ry     beta= 0.50
     Davidson diagonalization with overlap
     ethr =  1.00E-06,  avg # of iterations =  4.1

     total cpu time spent up to now is        8.1 secs

     total energy              =     -55.80145537 Ry
     estimated scf accuracy    <       0.00003750 Ry

     total magnetization       =     2.50 Bohr mag/cell
     absolute magnetization    =     2.67 Bohr mag/cell

     iteration #  2     ecut=    30.00 Ry     beta= 0.50
     Davidson diagonalization with overlap
     ethr =  4.69E-07,  avg # of iterations =  1.0

     total cpu time spent up to now is        8.4 secs

     total energy              =     -55.80146897 Ry
     estimated scf accuracy    <       0.00001947 Ry

     total magnetization       =     2.50 Bohr mag/cell
     absolute magnetization    =     2.66 Bohr mag/cell

     iteration #  3     ecut=    30.00 Ry     beta= 0.50
     Davidson diagonalization with overlap
     ethr =  2.43E-07,  avg # of iterations =  1.5

     total cpu time spent up to now is        8.7 secs

     total energy              =     -55.80148391 Ry
     estimated scf accuracy    <       0.00000265 Ry

     total magnetization       =     2.49 Bohr mag/cell
     absolute magnetization    =     2.65 Bohr mag/cell

     iteration #  4     ecut=    30.00 Ry     beta= 0.50
     Davidson diagonalization with overlap
     ethr =  3.32E-08,  avg # of iterations =  1.4

     total cpu time spent up to now is        8.9 secs

     total energy              =     -55.80148300 Ry
     estimated scf accuracy    <       0.00000084 Ry

     total magnetization       =     2.48 Bohr mag/cell
     absolute magnetization    =     2.64 Bohr mag/cell

     iteration #  5     ecut=    30.00 Ry     beta= 0.50
     Davidson diagonalization with overlap
     ethr =  1.05E-08,  avg # of iterations =  2.4

     total cpu time spent up to now is        9.2 secs

     total energy              =     -55.80148705 Ry
     estimated scf accuracy    <       0.00000005 Ry

     total magnetization       =     2.47 Bohr mag/cell
     absolute magnetization    =     2.63 Bohr mag/cell

     iteration #  6     ecut=    30.00 Ry     beta= 0.50
     Davidson diagonalization with overlap
     ethr =  5.92E-10,  avg # of iterations =  4.1

     total cpu time spent up to now is        9.6 secs

     total energy              =     -55.80148723 Ry
     estimated scf accuracy    <       0.00000002 Ry

     total magnetization       =     2.48 Bohr mag/cell
     absolute magnetization    =     2.64 Bohr mag/cell

     iteration #  7     ecut=    30.00 Ry     beta= 0.50
     Davidson diagonalization with overlap
     ethr =  1.98E-10,  avg # of iterations =  2.5

     Magnetic moment per site  (integrated on atomic sphere of radius R)
     atom   1 (R=0.413)  charge=  6.1633  magn=  2.5279

     total cpu time spent up to now is        9.9 secs

     End of self-consistent calculation

     Number of k-points >= 100: set verbosity='high' to print the bands.

     the Fermi energy is    12.8230 ev

!    total energy              =     -55.80148731 Ry
     estimated scf accuracy    <          4.5E-10 Ry
     smearing contrib. (-TS)   =       0.00020464 Ry
     internal energy E=F+TS    =     -55.80169195 Ry

     The total energy is F=E-TS. E is the sum of the following terms:
     one-electron contribution =       6.81873174 Ry
     hartree contribution      =       6.74056245 Ry
     xc contribution           =     -26.45352278 Ry
     ewald contribution        =     -42.90746336 Ry

     total magnetization       =     2.48 Bohr mag/cell
     absolute magnetization    =     2.63 Bohr mag/cell

     convergence has been achieved in   7 iterations

     Forces acting on atoms (cartesian axes, Ry/au):

     atom    1 type  1   force =     0.00000000    0.00000000    0.00000000

     Total force =     0.000000     Total SCF correction =     0.000000


     Computing stress (Cartesian axis) and pressure

          total   stress  (Ry/bohr**3)                   (kbar)     P=      -19.92
  -0.00013539   0.00000000   0.00000000          -19.92        0.00        0.00
   0.00000000  -0.00013539   0.00000000            0.00      -19.92        0.00
   0.00000000   0.00000000  -0.00013539            0.00        0.00      -19.92

     Energy error            =      4.0E-04 Ry
     Gradient error          =      0.0E+00 Ry/Bohr
     Cell gradient error     =      2.0E+01 kbar

     number of scf cycles    =   3
     number of bfgs steps    =   2

     enthalpy           old  =     -55.8010899888 Ry
     enthalpy           new  =     -55.8014873123 Ry

     CASE: enthalpy          _new < enthalpy          _old

     new trust radius        =       0.0101043588 bohr
     new conv_thr            =       0.0000000010 Ry

     new unit-cell volume =     78.62482 a.u.^3 (    11.65100 Ang^3 )
     density =      7.95922 g/cm^3

CELL_PARAMETERS (angstrom)
  -1.428129839   1.428129839   1.428129839
   1.428129839  -1.428129839   1.428129839
   1.428129839   1.428129839  -1.428129839

ATOMIC_POSITIONS (angstrom)
Fe               0.0000000000        0.0000000000        0.0000000000


     Message from routine punch:
     Nothing written, as per user request (disk_io='none')
     NEW-OLD atomic charge density approx. for the potential
     New effective cutoffs (rho, wfc):  265.60   26.80

     Check: negative core charge=   -0.000003
     Generating pointlists ...

     total cpu time spent up to now is       10.2 secs

     Self-consistent Calculation

     iteration #  1     ecut=    30.00 Ry     beta= 0.50
     Davidson diagonalization with overlap
     ethr =  1.00E-06,  avg # of iterations =  4.0

     total cpu time spent up to now is       10.6 secs

     total energy              =     -55.80154807 Ry
     estimated scf accuracy    <       0.00003166 Ry

     total magnetization       =     2.45 Bohr mag/cell
     absolute magnetization    =     2.61 Bohr mag/cell

     iteration #  2     ecut=    30.00 Ry     beta= 0.50
     Davidson diagonalization with overlap
     ethr =  3.96E-07,  avg # of iterations =  1.0

     total cpu time spent up to now is       10.8 secs

     total energy              =     -55.80155705 Ry
     estimated scf accuracy    <       0.00001916 Ry

     total magnetization       =     2.44 Bohr mag/cell
     absolute magnetization    =     2.60 Bohr mag/cell

     iteration #  3     ecut=    30.00 Ry     beta= 0.50
     Davidson diagonalization with overlap
     ethr =  2.40E-07,  avg # of iterations =  1.6

     total cpu time spent up to now is       11.1 secs

     total energy              =     -55.80158362 Ry
     estimated scf accuracy    <       0.00000302 Ry

     total magnetization       =     2.42 Bohr mag/cell
     absolute magnetization    =     2.58 Bohr mag/cell

     iteration #  4     ecut=    30.00 Ry     beta= 0.50
     Davidson diagonalization with overlap
     ethr =  3.78E-08,  avg # of iterations =  1.3

     total cpu time spent up to now is       11.4 secs

     total energy              =     -55.80157944 Ry
     estimated scf accuracy    <       0.00000131 Ry

     total magnetization       =     2.42 Bohr mag/cell
     absolute magnetization    =     2.57 Bohr mag/cell

     iteration #  5     ecut=    30.00 Ry     beta= 0.50
     Davidson diagonalization with overlap
     ethr =  1.63E-08,  avg # of iterations =  2.4

     total cpu time spent up to now is       11.7 secs

     total energy              =     -55.80158891 Ry
     estimated scf accuracy    <       0.00000010 Ry

     total magnetization       =     2.41 Bohr mag/cell
     absolute magnetization    =     2.55 Bohr mag/cell

     iteration #  6     ecut=    30.00 Ry     beta= 0.50
     Davidson diagonalization with overlap
     ethr =  1.20E-09,  avg # of iterations =  2.7

     total cpu time spent up to now is       12.0 secs

     total energy              =     -55.80158915 Ry
     estimated scf accuracy    <       0.00000004 Ry

     total magnetization       =     2.41 Bohr mag/cell
     absolute magnetization    =     2.56 Bohr mag/cell

     iteration #  7     ecut=    30.00 Ry     beta= 0.50
     Davidson diagonalization with overlap
     ethr =  5.23E-10,  avg # of iterations =  2.0

     Magnetic moment per site  (integrated on atomic sphere of radius R)
     atom   1 (R=0.413)  charge=  6.1778  magn=  2.4555

     total cpu time spent up to now is       12.3 secs

     End of self-consistent calculation

     Number of k-points >= 100: set verbosity='high' to print the bands.

     the Fermi energy is    13.0849 ev

!    total energy              =     -55.80158932 Ry
     estimated scf accuracy    <          4.6E-10 Ry
     smearing contrib. (-TS)   =       0.00008843 Ry
     internal energy E=F+TS    =     -55.80167776 Ry

     The total energy is F=E-TS. E is the sum of the following terms:
     one-electron contribution =       7.16078802 Ry
     hartree contribution      =       6.64314626 Ry
     xc contribution           =     -26.45436674 Ry
     ewald contribution        =     -43.15124530 Ry

     total magnetization       =     2.41 Bohr mag/cell
     absolute magnetization    =     2.56 Bohr mag/cell

     convergence has been achieved in   7 iterations

     Forces acting on atoms (cartesian axes, Ry/au):

     atom    1 type  1   force =     0.00000000    0.00000000    0.00000000

     Total force =     0.000000     Total SCF correction =     0.000000


     Computing stress (Cartesian axis) and pressure

          total   stress  (Ry/bohr**3)                   (kbar)     P=       -3.76
  -0.00002556   0.00000000   0.00000000           -3.76        0.00        0.00
   0.00000000  -0.00002556   0.00000000            0.00       -3.76        0.00
   0.00000000   0.00000000  -0.00002556            0.00        0.00       -3.76

     Energy error            =      1.0E-04 Ry
     Gradient error          =      0.0E+00 Ry/Bohr
     Cell gradient error     =      3.8E+00 kbar

     number of scf cycles    =   4
     number of bfgs steps    =   3

     enthalpy           old  =     -55.8014873123 Ry
     enthalpy           new  =     -55.8015893235 Ry

     CASE: enthalpy          _new < enthalpy          _old

     new trust radius        =       0.0023123518 bohr
     new conv_thr            =       0.0000000010 Ry

     new unit-cell volume =     78.31767 a.u.^3 (    11.60548 Ang^3 )
     density =      7.99043 g/cm^3

CELL_PARAMETERS (angstrom)
  -1.426267702   1.426267702   1.426267702
   1.426267702  -1.426267702   1.426267702
   1.426267702   1.426267702  -1.426267702

ATOMIC_POSITIONS (angstrom)
Fe               0.0000000000        0.0000000000        0.0000000000


     Message from routine punch:
     Nothing written, as per user request (disk_io='none')
     NEW-OLD atomic charge density approx. for the potential
     New effective cutoffs (rho, wfc):  266.29   26.87

     Check: negative core charge=   -0.000003
     Generating pointlists ...

     total cpu time spent up to now is       12.5 secs

     Self-consistent Calculation

     iteration #  1     ecut=    30.00 Ry     beta= 0.50
     Davidson diagonalization with overlap
     ethr =  1.00E-06,  avg # of iterations =  2.6

     Threshold (ethr) on eigenvalues was too large:
     Diagonalizing with lowered threshold

     Davidson diagonalization with overlap
     ethr =  2.29E-08,  avg # of iterations =  1.6

     total cpu time spent up to now is       13.1 secs

     total energy              =     -55.80159002 Ry
     estimated scf accuracy    <       0.00000184 Ry

     total magnetization       =     2.40 Bohr mag/cell
     absolute magnetization    =     2.55 Bohr mag/cell

     iteration #  2     ecut=    30.00 Ry     beta= 0.50
     Davidson diagonalization with overlap
     ethr =  2.30E-08,  avg # of iterations =  1.0

     total cpu time spent up to now is       13.4 secs

     total energy              =     -55.80159038 Ry
     estimated scf accuracy    <       0.00000116 Ry

     total magnetization       =     2.40 Bohr mag/cell
     absolute magnetization    =     2.55 Bohr mag/cell

     iteration #  3     ecut=    30.00 Ry     beta= 0.50
     Davidson diagonalization with overlap
     ethr =  1.46E-08,  avg # of iterations =  1.6

     total cpu time spent up to now is       13.8 secs

     total energy              =     -55.80159237 Ry
     estimated scf accuracy    <       0.00000017 Ry

     total magnetization       =     2.39 Bohr mag/cell
     absolute magnetization    =     2.54 Bohr mag/cell

     iteration #  4     ecut=    30.00 Ry     beta= 0.50
     Davidson diagonalization with overlap
     ethr =  2.14E-09,  avg # of iterations =  1.3

     total cpu time spent up to now is       14.2 secs

     total energy              =     -55.80159215 Ry
     estimated scf accuracy    <       0.00000009 Ry

     total magnetization       =     2.39 Bohr mag/cell
     absolute magnetization    =     2.54 Bohr mag/cell

     iteration #  5     ecut=    30.00 Ry     beta= 0.50
     Davidson diagonalization with overlap
     ethr =  1.07E-09,  avg # of iterations =  2.4

     total cpu time spent up to now is       14.6 secs

     total energy              =     -55.80159272 Ry
     estimated scf accuracy    <          2.3E-09 Ry

     total magnetization       =     2.39 Bohr mag/cell
     absolute magnetization    =     2.54 Bohr mag/cell

     iteration #  6     ecut=    30.00 Ry     beta= 0.50
     Davidson diagonalization with overlap
     ethr =  2.93E-11,  avg # of iterations =  4.2

     Magnetic moment per site  (integrated on atomic sphere of radius R)
     atom   1 (R=0.413)  charge=  6.1812  magn=  2.4367

     total cpu time spent up to now is       15.0 secs

     End of self-consistent calculation

     Number of k-points >= 100: set verbosity='high' to print the bands.

     the Fermi energy is    13.1476 ev

!    total energy              =     -55.80159274 Ry
     estimated scf accuracy    <          5.3E-10 Ry
     smearing contrib. (-TS)   =       0.00007063 Ry
     internal energy E=F+TS    =     -55.80166337 Ry

     The total energy is F=E-TS. E is the sum of the following terms:
     one-electron contribution =       7.23963161 Ry
     hartree contribution      =       6.62065401 Ry
     xc contribution           =     -26.45436534 Ry
     ewald contribution        =     -43.20758364 Ry

     total magnetization       =     2.39 Bohr mag/cell
     absolute magnetization    =     2.54 Bohr mag/cell

     convergence has been achieved in   6 iterations

     Forces acting on atoms (cartesian axes, Ry/au):

     atom    1 type  1   force =     0.00000000    0.00000000    0.00000000

     Total force =     0.000000     Total SCF correction =     0.000000


     Computing stress (Cartesian axis) and pressure

          total   stress  (Ry/bohr**3)                   (kbar)     P=        0.49
   0.00000331   0.00000000   0.00000000            0.49        0.00        0.00
   0.00000000   0.00000331   0.00000000            0.00        0.49        0.00
   0.00000000   0.00000000   0.00000331            0.00        0.00        0.49

     Energy error            =      3.4E-06 Ry
     Gradient error          =      0.0E+00 Ry/Bohr
     Cell gradient error     =      4.9E-01 kbar

     bfgs converged in   5 scf cycles and   4 bfgs steps
     (criteria: energy <  1.0E-04 Ry, force <  1.0E-03 Ry/Bohr, cell <  5.0E-01 kbar)

     End of BFGS Geometry Optimization

     Final enthalpy           =     -55.8015927354 Ry

     File /home/bond/Work/Lab4/1A/Fe_bcc_nk_14_relax/pwscf.bfgs deleted, as requested
Begin final coordinates
     new unit-cell volume =     78.31767 a.u.^3 (    11.60548 Ang^3 )
     density =      7.99043 g/cm^3

CELL_PARAMETERS (angstrom)
  -1.426267702   1.426267702   1.426267702
   1.426267702  -1.426267702   1.426267702
   1.426267702   1.426267702  -1.426267702

ATOMIC_POSITIONS (angstrom)
Fe               0.0000000000        0.0000000000        0.0000000000
End final coordinates


     Message from routine punch:
     Nothing written, as per user request (disk_io='none')

     Final scf calculation at the relaxed structure.
     The G-vectors are recalculated for the final unit cell
     Results may differ from those at the preceding step.

     Parallelization info
     --------------------
     sticks:   dense  smooth     PW     G-vecs:    dense   smooth      PW
     Min         241     100     45                 3408      872     277
     Max         242     101     46                 3411      873     278
     Sum         483     201     91                 6819     1745     555

     Using Slab Decomposition



     bravais-lattice index     =            0
     lattice parameter (alat)  =       4.4187  a.u.
     unit-cell volume          =      78.3177 (a.u.)^3
     number of atoms/cell      =            1
     number of atomic types    =            1
     number of electrons       =         8.00
     number of Kohn-Sham states=            8
     kinetic-energy cutoff     =      30.0000  Ry
     charge density cutoff     =     300.0000  Ry
     scf convergence threshold =      1.0E-09
     mixing beta               =       0.5000
     number of iterations used =            8  plain     mixing
     press convergence thresh. =      5.0E-01
     Exchange-correlation=  SLA  PW   PBE  PBE
                           (   1   4   3   4   0   0   0)

     celldm(1)=   4.418687  celldm(2)=   0.000000  celldm(3)=   0.000000
     celldm(4)=   0.000000  celldm(5)=   0.000000  celldm(6)=   0.000000

     crystal axes: (cart. coord. in units of alat)
               a(1) = (  -0.609967   0.609967   0.609967 )  
               a(2) = (   0.609967  -0.609967   0.609967 )  
               a(3) = (   0.609967   0.609967  -0.609967 )  

     reciprocal axes: (cart. coord. in units 2 pi/alat)
               b(1) = (  0.000000  0.819716  0.819716 )  
               b(2) = (  0.819716  0.000000  0.819716 )  
               b(3) = (  0.819716  0.819716  0.000000 )  


     PseudoPot. # 1 for Fe read from file:
     /home/bond/Software/QE/qe-7.4.1/pseudo/Fe.pbe-nd-rrkjus.UPF
     MD5 check sum: 398036227a04b607635f6f5e8dfd8242
     Pseudo is Ultrasoft + core correction, Zval =  8.0
     Generated by new atomic code, or converted to UPF format
     Using radial grid of  957 points,  6 beta functions with: 
                l(1) =   0
                l(2) =   0
                l(3) =   1
                l(4) =   1
                l(5) =   2
                l(6) =   2
     Q(r) pseudized with 0 coefficients 


     atomic species   valence    mass     pseudopotential
     Fe                8.00    55.84500     Fe( 1.00)

     Starting magnetic structure 
     atomic species   magnetization
     Fe              0.394

     48 Sym. Ops., with inversion, found



   Cartesian axes

     site n.     atom                  positions (alat units)
         1        Fe     tau(   1) = (   0.0000000   0.0000000   0.0000000  )

     number of k points=   104  Methfessel-Paxton smearing, width (Ry)=  0.0200

     Number of k-points >= 100: set verbosity='high' to print them.

     Dense  grid:     6819 G-vectors     FFT dimensions: (  25,  25,  25)

     Smooth grid:     1745 G-vectors     FFT dimensions: (  18,  18,  18)

     Estimated max dynamical RAM per process >      19.44 MB

     Estimated total dynamical RAM >      38.87 MB

     Check: negative core charge=   -0.000005
     Generating pointlists ...

     Initial potential from superposition of free atoms

     starting charge       7.9994, renormalised to       8.0000
     Starting wfcs are    6 randomized atomic wfcs +    2 random wfcs

     total cpu time spent up to now is       15.5 secs

     Self-consistent Calculation

     iteration #  1     ecut=    30.00 Ry     beta= 0.50
     Davidson diagonalization with overlap
     c_bands:  1 eigenvalues not converged
     c_bands:  1 eigenvalues not converged
     c_bands:  1 eigenvalues not converged
     c_bands:  1 eigenvalues not converged
     c_bands:  1 eigenvalues not converged
     c_bands:  1 eigenvalues not converged
     c_bands:  1 eigenvalues not converged
     c_bands:  1 eigenvalues not converged
     c_bands:  1 eigenvalues not converged
     c_bands:  1 eigenvalues not converged
     c_bands:  1 eigenvalues not converged
     c_bands:  1 eigenvalues not converged
     c_bands:  1 eigenvalues not converged
     c_bands:  1 eigenvalues not converged
     c_bands:  1 eigenvalues not converged
     c_bands:  1 eigenvalues not converged
     c_bands:  1 eigenvalues not converged
     c_bands:  1 eigenvalues not converged
     c_bands:  1 eigenvalues not converged
     c_bands:  1 eigenvalues not converged
     c_bands:  1 eigenvalues not converged
     c_bands:  1 eigenvalues not converged
     c_bands:  1 eigenvalues not converged
     c_bands:  1 eigenvalues not converged
     c_bands:  1 eigenvalues not converged
     c_bands:  1 eigenvalues not converged
     c_bands:  1 eigenvalues not converged
     c_bands:  1 eigenvalues not converged
     c_bands:  1 eigenvalues not converged
     c_bands:  1 eigenvalues not converged
     c_bands:  1 eigenvalues not converged
     c_bands:  1 eigenvalues not converged
     c_bands:  1 eigenvalues not converged
     c_bands:  1 eigenvalues not converged
     c_bands:  1 eigenvalues not converged
     c_bands:  1 eigenvalues not converged
     c_bands:  1 eigenvalues not converged
     ethr =  1.00E-06,  avg # of iterations = 17.2

     total cpu time spent up to now is       17.4 secs

     total energy              =     -55.67146166 Ry
     estimated scf accuracy    <       0.36154311 Ry

     total magnetization       =     2.26 Bohr mag/cell
     absolute magnetization    =     2.26 Bohr mag/cell

     iteration #  2     ecut=    30.00 Ry     beta= 0.50
     Davidson diagonalization with overlap
     ethr =  4.52E-03,  avg # of iterations =  2.0

     total cpu time spent up to now is       17.8 secs

     total energy              =     -55.77786502 Ry
     estimated scf accuracy    <       0.10187293 Ry

     total magnetization       =     2.52 Bohr mag/cell
     absolute magnetization    =     2.53 Bohr mag/cell

     iteration #  3     ecut=    30.00 Ry     beta= 0.50
     Davidson diagonalization with overlap
     ethr =  1.27E-03,  avg # of iterations =  1.0

     total cpu time spent up to now is       18.2 secs

     total energy              =     -55.80007201 Ry
     estimated scf accuracy    <       0.00161341 Ry

     total magnetization       =     2.39 Bohr mag/cell
     absolute magnetization    =     2.43 Bohr mag/cell

     iteration #  4     ecut=    30.00 Ry     beta= 0.50
     Davidson diagonalization with overlap
     ethr =  2.02E-05,  avg # of iterations =  2.3

     total cpu time spent up to now is       18.7 secs

     total energy              =     -55.80209654 Ry
     estimated scf accuracy    <       0.00005044 Ry

     total magnetization       =     2.34 Bohr mag/cell
     absolute magnetization    =     2.47 Bohr mag/cell

     iteration #  5     ecut=    30.00 Ry     beta= 0.50
     Davidson diagonalization with overlap
     ethr =  6.31E-07,  avg # of iterations =  3.9

     total cpu time spent up to now is       19.2 secs

     total energy              =     -55.80217829 Ry
     estimated scf accuracy    <       0.00002320 Ry

     total magnetization       =     2.35 Bohr mag/cell
     absolute magnetization    =     2.49 Bohr mag/cell

     iteration #  6     ecut=    30.00 Ry     beta= 0.50
     Davidson diagonalization with overlap
     ethr =  2.90E-07,  avg # of iterations =  2.1

     total cpu time spent up to now is       19.6 secs

     total energy              =     -55.80220107 Ry
     estimated scf accuracy    <       0.00000521 Ry

     total magnetization       =     2.36 Bohr mag/cell
     absolute magnetization    =     2.51 Bohr mag/cell

     iteration #  7     ecut=    30.00 Ry     beta= 0.50
     Davidson diagonalization with overlap
     ethr =  6.51E-08,  avg # of iterations =  3.1

     total cpu time spent up to now is       20.1 secs

     total energy              =     -55.80220374 Ry
     estimated scf accuracy    <       0.00001664 Ry

     total magnetization       =     2.38 Bohr mag/cell
     absolute magnetization    =     2.52 Bohr mag/cell

     iteration #  8     ecut=    30.00 Ry     beta= 0.50
     Davidson diagonalization with overlap
     ethr =  6.51E-08,  avg # of iterations =  2.4

     total cpu time spent up to now is       20.6 secs

     total energy              =     -55.80221519 Ry
     estimated scf accuracy    <       0.00000141 Ry

     total magnetization       =     2.39 Bohr mag/cell
     absolute magnetization    =     2.53 Bohr mag/cell

     iteration #  9     ecut=    30.00 Ry     beta= 0.50
     Davidson diagonalization with overlap
     ethr =  1.77E-08,  avg # of iterations =  1.7

     total cpu time spent up to now is       21.0 secs

     total energy              =     -55.80221561 Ry
     estimated scf accuracy    <       0.00000001 Ry

     total magnetization       =     2.39 Bohr mag/cell
     absolute magnetization    =     2.53 Bohr mag/cell

     iteration # 10     ecut=    30.00 Ry     beta= 0.50
     Davidson diagonalization with overlap
     ethr =  1.49E-10,  avg # of iterations =  7.8

     total cpu time spent up to now is       21.9 secs

     total energy              =     -55.80221582 Ry
     estimated scf accuracy    <          3.1E-09 Ry

     total magnetization       =     2.39 Bohr mag/cell
     absolute magnetization    =     2.54 Bohr mag/cell

     iteration # 11     ecut=    30.00 Ry     beta= 0.50
     Davidson diagonalization with overlap
     ethr =  3.84E-11,  avg # of iterations =  2.1

     Magnetic moment per site  (integrated on atomic sphere of radius R)
     atom   1 (R=0.413)  charge=  6.1819  magn=  2.4373

     total cpu time spent up to now is       22.3 secs

     End of self-consistent calculation

     Number of k-points >= 100: set verbosity='high' to print the bands.

     the Fermi energy is    13.1457 ev

!    total energy              =     -55.80221583 Ry
     estimated scf accuracy    <          3.8E-11 Ry
     smearing contrib. (-TS)   =       0.00007162 Ry
     internal energy E=F+TS    =     -55.80228745 Ry

     The total energy is F=E-TS. E is the sum of the following terms:
     one-electron contribution =       7.23893730 Ry
     hartree contribution      =       6.62005771 Ry
     xc contribution           =     -26.45369882 Ry
     ewald contribution        =     -43.20758364 Ry

     total magnetization       =     2.39 Bohr mag/cell
     absolute magnetization    =     2.54 Bohr mag/cell

     convergence has been achieved in  11 iterations

     Forces acting on atoms (cartesian axes, Ry/au):

     atom    1 type  1   force =     0.00000000    0.00000000    0.00000000

     Total force =     0.000000     Total SCF correction =     0.000000


     Computing stress (Cartesian axis) and pressure

          total   stress  (Ry/bohr**3)                   (kbar)     P=       -0.44
  -0.00000298   0.00000000   0.00000000           -0.44        0.00        0.00
   0.00000000  -0.00000298   0.00000000            0.00       -0.44        0.00
   0.00000000   0.00000000  -0.00000298            0.00        0.00       -0.44

     Message from routine punch:
     Nothing written, as per user request (disk_io='none')

     init_run     :      0.76s CPU      0.89s WALL (       2 calls)
     electrons    :     17.63s CPU     20.08s WALL (       6 calls)
     update_pot   :      0.03s CPU      0.03s WALL (       4 calls)
     forces       :      0.21s CPU      0.22s WALL (       6 calls)
     stress       :      1.14s CPU      1.17s WALL (       6 calls)

     Called by init_run:
     wfcinit      :      0.23s CPU      0.27s WALL (       2 calls)
     potinit      :      0.15s CPU      0.16s WALL (       2 calls)
     hinit0       :      0.34s CPU      0.38s WALL (       2 calls)

     Called by electrons:
     c_bands      :     14.20s CPU     16.27s WALL (      52 calls)
     sum_band     :      2.62s CPU      2.98s WALL (      52 calls)
     v_of_rho     :      0.35s CPU      0.36s WALL (      57 calls)
     newd         :      0.50s CPU      0.52s WALL (      57 calls)
     mix_rho      :      0.02s CPU      0.03s WALL (      52 calls)

     Called by c_bands:
     init_us_2    :      0.48s CPU      0.56s WALL (   24544 calls)
     cegterg      :     13.18s CPU     15.09s WALL (   10816 calls)

     Called by *egterg:
     cdiaghg      :      1.96s CPU      2.27s WALL (   38939 calls)
     h_psi        :      9.51s CPU     10.86s WALL (   40395 calls)
     s_psi        :      0.17s CPU      0.20s WALL (   40395 calls)
     g_psi        :      0.07s CPU      0.08s WALL (   29163 calls)

     Called by h_psi:
     h_psi:calbec :      0.50s CPU      0.57s WALL (   40395 calls)
     vloc_psi     :      8.62s CPU      9.83s WALL (   40395 calls)
     add_vuspsi   :      0.19s CPU      0.22s WALL (   40395 calls)

     General routines
     calbec       :      0.76s CPU      0.87s WALL (   72427 calls)
     fft          :      0.18s CPU      0.21s WALL (    1659 calls)
     ffts         :      0.11s CPU      0.11s WALL (     218 calls)
     fftw         :      8.32s CPU      9.53s WALL (  561310 calls)
     interpolate  :      0.11s CPU      0.12s WALL (     114 calls)

     Parallel routines

     PWSCF        :     19.92s CPU     22.59s WALL


   This run was terminated on:  18:32:48  20Oct2025            

=------------------------------------------------------------------------------=
   JOB DONE.
=------------------------------------------------------------------------------=
