LAMMPS (22 Jul 2025 - Update 1)
# ---------- 1. Initialize simulation ---------------------
units metal
atom_style atomic
dimension  3
boundary   p p f
read_data /home/bond/Work/Lab1/Surface/LJ/relax/4_3_100/lammps.data
Reading data file ...
  orthogonal box = (0 0 0) to (8.7451919 8.7451919 12.183785)
  1 by 1 by 1 MPI processor grid
  reading atoms ...
  36 atoms
  read_data CPU = 0.001 seconds

# ---------- 2. Specify interatomic potential ---------------------
pair_style lj/cut 4.5
pair_coeff 1 1 0.392 2.620 4.5

# ---------- 3. Run single point calculation  ---------------------
thermo_style custom step pe lx ly lz press pxx pyy pzz
run 0
WARNING: No fixes with time integration, atoms won't move
For more information see https://docs.lammps.org/err0028 (../verlet.cpp:60)
Generated 0 of 0 mixed pair_coeff terms from geometric mixing rule
Neighbor list info ...
  update: every = 1 steps, delay = 0 steps, check = yes
  max neighbors/atom: 2000, page size: 100000
  master list distance cutoff = 6.5
  ghost atom cutoff = 6.5
  binsize = 3.25, bins = 3 3 4
  1 neighbor lists, perpetual/occasional/extra = 1 0 0
  (1) pair lj/cut, perpetual
      attributes: half, newton on
      pair build: half/bin/atomonly/newton
      stencil: half/bin/3d
      bin: standard
Per MPI rank memory allocation (min/avg/max) = 3.052 | 3.052 | 3.052 Mbytes
   Step         PotEng           Lx             Ly             Lz           Press           Pxx            Pyy            Pzz      
         0  -79.038136      8.7451919      8.7451919      12.183785      0.72570168    -4163.873      -4163.873       8329.9231    
Loop time of 1.388e-06 on 1 procs for 0 steps with 36 atoms

0.0% CPU use with 1 MPI tasks x no OpenMP threads

MPI task timing breakdown:
Section |  min time  |  avg time  |  max time  |%varavg| %total
---------------------------------------------------------------
Pair    | 0          | 0          | 0          |   0.0 |  0.00
Neigh   | 0          | 0          | 0          |   0.0 |  0.00
Comm    | 0          | 0          | 0          |   0.0 |  0.00
Output  | 0          | 0          | 0          |   0.0 |  0.00
Modify  | 0          | 0          | 0          |   0.0 |  0.00
Other   |            | 1.388e-06  |            |       |100.00

Nlocal:             36 ave          36 max          36 min
Histogram: 1 0 0 0 0 0 0 0 0 0
Nghost:            190 ave         190 max         190 min
Histogram: 1 0 0 0 0 0 0 0 0 0
Neighs:            702 ave         702 max         702 min
Histogram: 1 0 0 0 0 0 0 0 0 0

Total # of neighbors = 702
Ave neighs/atom = 19.5
Neighbor list builds = 0
Dangerous builds = 0
# -- include optimization of the unit cell parameter
fix 1 all box/relax x 0.0 y 0.0 couple xy vmax 0.001

# -- enable optimization of atomic positions (and the cell)
min_style cg
minimize 1e-10 1e-10 1000 10000
Generated 0 of 0 mixed pair_coeff terms from geometric mixing rule
WARNING: Energy due to 3 extra global DOFs will be included in minimizer energies
 (../min.cpp:222)
Per MPI rank memory allocation (min/avg/max) = 4.177 | 4.177 | 4.177 Mbytes
   Step         PotEng           Lx             Ly             Lz           Press           Pxx            Pyy            Pzz      
         0  -79.038136      8.7451919      8.7451919      12.183785      0.72570168    -4163.873      -4163.873       8329.9231    
        15  -79.082175      8.7052666      8.7052666      12.183785      5.6736161      3.1505335      3.1505335      10.719781    
Loop time of 0.000486997 on 1 procs for 15 steps with 36 atoms

0.0% CPU use with 1 MPI tasks x no OpenMP threads

Minimization stats:
  Stopping criterion = energy tolerance
  Energy initial, next-to-last, final = 
      -79.038135989592  -79.0821746408283  -79.0821746433192
  Force two-norm initial, final = 3.5131541 0.0026506755
  Force max component initial, final = 2.4216313 0.0018239267
  Final line search alpha, max atom move = 1 0.0018239267
  Iterations, force evaluations = 15 27

MPI task timing breakdown:
Section |  min time  |  avg time  |  max time  |%varavg| %total
---------------------------------------------------------------
Pair    | 0.0002822  | 0.0002822  | 0.0002822  |   0.0 | 57.95
Neigh   | 0          | 0          | 0          |   0.0 |  0.00
Comm    | 2.8405e-05 | 2.8405e-05 | 2.8405e-05 |   0.0 |  5.83
Output  | 0          | 0          | 0          |   0.0 |  0.00
Modify  | 0          | 0          | 0          |   0.0 |  0.00
Other   |            | 0.0001764  |            |       | 36.22

Nlocal:             36 ave          36 max          36 min
Histogram: 1 0 0 0 0 0 0 0 0 0
Nghost:            190 ave         190 max         190 min
Histogram: 1 0 0 0 0 0 0 0 0 0
Neighs:            702 ave         702 max         702 min
Histogram: 1 0 0 0 0 0 0 0 0 0

Total # of neighbors = 702
Ave neighs/atom = 19.5
Neighbor list builds = 0
Dangerous builds = 0

# ---- 4. Define and print useful variables -------------
variable natoms equal "count(all)"
variable totenergy equal "pe"
variable length equal "lx"

print "Total energy (eV) = ${totenergy}"
Total energy (eV) = -79.0821746433192
print "Number of atoms = ${natoms}"
Number of atoms = 36
print "Lattice constant (Angstoms) = ${length}"
Lattice constant (Angstoms) = 8.70526657097423
Total wall time: 0:00:00
