Header of the LAMMPS data file 

3 atoms 
1 atom types

0.0 4.12252301377974  xlo xhi
0.0 4.12252301377974  ylo yhi
0.0 4.12252301377974  zlo zhi

Masses 

1  26.9815385

Atoms # atomic 

1 1 0.00000 0.00000 0.00000 
2 1 0.00000 2.06126 2.06126 
3 1 2.06126 2.06126 0.00000 
