LAMMPS (22 Jul 2025 - Update 1)
# ---------- 1. Initialize simulation ---------------------
units metal
atom_style atomic
dimension  3
boundary   p p f
read_data /home/bond/Work/Lab1/Surface/LJ/relax/9_5_110/lammps.data
Reading data file ...
  orthogonal box = (0 0 0) to (12.367569 8.7451919 21.660256)
  1 by 1 by 1 MPI processor grid
  reading atoms ...
  81 atoms
  read_data CPU = 0.001 seconds

# ---------- 2. Specify interatomic potential ---------------------
pair_style lj/cut 4.5
pair_coeff 1 1 0.392 2.620 4.5

# ---------- 3. Run single point calculation  ---------------------
thermo_style custom step pe lx ly lz press pxx pyy pzz
run 0
WARNING: No fixes with time integration, atoms won't move
For more information see https://docs.lammps.org/err0028 (../verlet.cpp:60)
Generated 0 of 0 mixed pair_coeff terms from geometric mixing rule
Neighbor list info ...
  update: every = 1 steps, delay = 0 steps, check = yes
  max neighbors/atom: 2000, page size: 100000
  master list distance cutoff = 6.5
  ghost atom cutoff = 6.5
  binsize = 3.25, bins = 4 3 7
  1 neighbor lists, perpetual/occasional/extra = 1 0 0
  (1) pair lj/cut, perpetual
      attributes: half, newton on
      pair build: half/bin/atomonly/newton
      stencil: half/bin/3d
      bin: standard
Per MPI rank memory allocation (min/avg/max) = 3.055 | 3.055 | 3.055 Mbytes
   Step         PotEng           Lx             Ly             Lz           Press           Pxx            Pyy            Pzz      
         0  -188.82295      12.367569      8.7451919      21.660256      1104.0191     -3313.0526      4969.0094      1656.1006    
Loop time of 1.397e-06 on 1 procs for 0 steps with 81 atoms

143.2% CPU use with 1 MPI tasks x no OpenMP threads

MPI task timing breakdown:
Section |  min time  |  avg time  |  max time  |%varavg| %total
---------------------------------------------------------------
Pair    | 0          | 0          | 0          |   0.0 |  0.00
Neigh   | 0          | 0          | 0          |   0.0 |  0.00
Comm    | 0          | 0          | 0          |   0.0 |  0.00
Output  | 0          | 0          | 0          |   0.0 |  0.00
Modify  | 0          | 0          | 0          |   0.0 |  0.00
Other   |            | 1.397e-06  |            |       |100.00

Nlocal:             81 ave          81 max          81 min
Histogram: 1 0 0 0 0 0 0 0 0 0
Nghost:            355 ave         355 max         355 min
Histogram: 1 0 0 0 0 0 0 0 0 0
Neighs:           1809 ave        1809 max        1809 min
Histogram: 1 0 0 0 0 0 0 0 0 0

Total # of neighbors = 1809
Ave neighs/atom = 22.333333
Neighbor list builds = 0
Dangerous builds = 0
# -- include optimization of the unit cell parameter
fix 1 all box/relax x 0.0 y 0.0 couple xy vmax 0.001

# -- enable optimization of atomic positions (and the cell)
min_style cg
minimize 1e-10 1e-10 1000 10000
Generated 0 of 0 mixed pair_coeff terms from geometric mixing rule
WARNING: Energy due to 3 extra global DOFs will be included in minimizer energies
 (../min.cpp:222)
Per MPI rank memory allocation (min/avg/max) = 4.18 | 4.18 | 4.18 Mbytes
   Step         PotEng           Lx             Ly             Lz           Press           Pxx            Pyy            Pzz      
         0  -188.82295      12.367569      8.7451919      21.660256      1104.0191     -3313.0526      4969.0094      1656.1006    
        14  -188.83559      12.366085      8.7441427      21.660256      22.352643     -4606.2265      4608.6095      64.674949    
Loop time of 0.00113747 on 1 procs for 14 steps with 81 atoms

100.0% CPU use with 1 MPI tasks x no OpenMP threads

Minimization stats:
  Stopping criterion = energy tolerance
  Energy initial, next-to-last, final = 
     -188.822949282919  -188.835590615144   -188.83559061954
  Force two-norm initial, final = 1.7994846 0.0038064275
  Force max component initial, final = 1.2106704 0.0017419879
  Final line search alpha, max atom move = 0.42920173 0.00074766421
  Iterations, force evaluations = 14 28

MPI task timing breakdown:
Section |  min time  |  avg time  |  max time  |%varavg| %total
---------------------------------------------------------------
Pair    | 0.00077877 | 0.00077877 | 0.00077877 |   0.0 | 68.46
Neigh   | 0          | 0          | 0          |   0.0 |  0.00
Comm    | 5.1195e-05 | 5.1195e-05 | 5.1195e-05 |   0.0 |  4.50
Output  | 0          | 0          | 0          |   0.0 |  0.00
Modify  | 0          | 0          | 0          |   0.0 |  0.00
Other   |            | 0.0003075  |            |       | 27.03

Nlocal:             81 ave          81 max          81 min
Histogram: 1 0 0 0 0 0 0 0 0 0
Nghost:            355 ave         355 max         355 min
Histogram: 1 0 0 0 0 0 0 0 0 0
Neighs:           1809 ave        1809 max        1809 min
Histogram: 1 0 0 0 0 0 0 0 0 0

Total # of neighbors = 1809
Ave neighs/atom = 22.333333
Neighbor list builds = 0
Dangerous builds = 0

# ---- 4. Define and print useful variables -------------
variable natoms equal "count(all)"
variable totenergy equal "pe"
variable length equal "lx"

print "Total energy (eV) = ${totenergy}"
Total energy (eV) = -188.83559061954
print "Number of atoms = ${natoms}"
Number of atoms = 81
print "Lattice constant (Angstoms) = ${length}"
Lattice constant (Angstoms) = 12.3660852607619
Total wall time: 0:00:00
