LAMMPS (22 Jul 2025 - Update 1)
# ---------- 1. Initialize simulation ---------------------
units metal
atom_style atomic
dimension  3
boundary   p p f
read_data /home/bond/Work/Lab1/Surface/LJ/relax/8_9_100/lammps.data
Reading data file ...
  orthogonal box = (0 0 0) to (8.7451919 8.7451919 32.428831)
  1 by 1 by 1 MPI processor grid
  reading atoms ...
  72 atoms
  read_data CPU = 0.001 seconds

# ---------- 2. Specify interatomic potential ---------------------
pair_style lj/cut 4.5
pair_coeff 1 1 0.392 2.620 4.5

# ---------- 3. Run single point calculation  ---------------------
thermo_style custom step pe lx ly lz press pxx pyy pzz
run 0
WARNING: No fixes with time integration, atoms won't move
For more information see https://docs.lammps.org/err0028 (../verlet.cpp:60)
Generated 0 of 0 mixed pair_coeff terms from geometric mixing rule
Neighbor list info ...
  update: every = 1 steps, delay = 0 steps, check = yes
  max neighbors/atom: 2000, page size: 100000
  master list distance cutoff = 6.5
  ghost atom cutoff = 6.5
  binsize = 3.25, bins = 3 3 10
  1 neighbor lists, perpetual/occasional/extra = 1 0 0
  (1) pair lj/cut, perpetual
      attributes: half, newton on
      pair build: half/bin/atomonly/newton
      stencil: half/bin/3d
      bin: standard
Per MPI rank memory allocation (min/avg/max) = 3.056 | 3.056 | 3.056 Mbytes
   Step         PotEng           Lx             Ly             Lz           Press           Pxx            Pyy            Pzz      
         0  -173.8839       8.7451919      8.7451919      32.428831      0.036515192   -1564.5899     -1564.5899      3129.2893    
Loop time of 1.415e-06 on 1 procs for 0 steps with 72 atoms

0.0% CPU use with 1 MPI tasks x no OpenMP threads

MPI task timing breakdown:
Section |  min time  |  avg time  |  max time  |%varavg| %total
---------------------------------------------------------------
Pair    | 0          | 0          | 0          |   0.0 |  0.00
Neigh   | 0          | 0          | 0          |   0.0 |  0.00
Comm    | 0          | 0          | 0          |   0.0 |  0.00
Output  | 0          | 0          | 0          |   0.0 |  0.00
Modify  | 0          | 0          | 0          |   0.0 |  0.00
Other   |            | 1.415e-06  |            |       |100.00

Nlocal:             72 ave          72 max          72 min
Histogram: 1 0 0 0 0 0 0 0 0 0
Nghost:            380 ave         380 max         380 min
Histogram: 1 0 0 0 0 0 0 0 0 0
Neighs:           1674 ave        1674 max        1674 min
Histogram: 1 0 0 0 0 0 0 0 0 0

Total # of neighbors = 1674
Ave neighs/atom = 23.25
Neighbor list builds = 0
Dangerous builds = 0
# -- include optimization of the unit cell parameter
fix 1 all box/relax x 0.0 y 0.0 couple xy vmax 0.001

# -- enable optimization of atomic positions (and the cell)
min_style cg
minimize 1e-10 1e-10 1000 10000
Generated 0 of 0 mixed pair_coeff terms from geometric mixing rule
WARNING: Energy due to 3 extra global DOFs will be included in minimizer energies
 (../min.cpp:222)
Per MPI rank memory allocation (min/avg/max) = 4.181 | 4.181 | 4.181 Mbytes
   Step         PotEng           Lx             Ly             Lz           Press           Pxx            Pyy            Pzz      
         0  -173.8839       8.7451919      8.7451919      32.428831      0.036515192   -1564.5899     -1564.5899      3129.2893    
        39  -173.91678      8.724278       8.724278       32.428831      1.6149064      0.5033579      0.5033579      3.8380034    
Loop time of 0.00259395 on 1 procs for 39 steps with 72 atoms

99.8% CPU use with 1 MPI tasks x no OpenMP threads

Minimization stats:
  Stopping criterion = energy tolerance
  Energy initial, next-to-last, final = 
     -173.883903424429  -173.916778483489  -173.916778490469
  Force two-norm initial, final = 3.5135549 0.0027889544
  Force max component initial, final = 2.4219219 0.00077731431
  Final line search alpha, max atom move = 0.25233748 0.00019614554
  Iterations, force evaluations = 39 78

MPI task timing breakdown:
Section |  min time  |  avg time  |  max time  |%varavg| %total
---------------------------------------------------------------
Pair    | 0.0016327  | 0.0016327  | 0.0016327  |   0.0 | 62.94
Neigh   | 0          | 0          | 0          |   0.0 |  0.00
Comm    | 0.00016231 | 0.00016231 | 0.00016231 |   0.0 |  6.26
Output  | 0          | 0          | 0          |   0.0 |  0.00
Modify  | 0          | 0          | 0          |   0.0 |  0.00
Other   |            | 0.000799   |            |       | 30.80

Nlocal:             72 ave          72 max          72 min
Histogram: 1 0 0 0 0 0 0 0 0 0
Nghost:            380 ave         380 max         380 min
Histogram: 1 0 0 0 0 0 0 0 0 0
Neighs:           1674 ave        1674 max        1674 min
Histogram: 1 0 0 0 0 0 0 0 0 0

Total # of neighbors = 1674
Ave neighs/atom = 23.25
Neighbor list builds = 0
Dangerous builds = 0

# ---- 4. Define and print useful variables -------------
variable natoms equal "count(all)"
variable totenergy equal "pe"
variable length equal "lx"

print "Total energy (eV) = ${totenergy}"
Total energy (eV) = -173.916778490469
print "Number of atoms = ${natoms}"
Number of atoms = 72
print "Lattice constant (Angstoms) = ${length}"
Lattice constant (Angstoms) = 8.72427803108937
Total wall time: 0:00:00
