
     Program PWSCF v.7.4.1 starts on  8Oct2025 at  2: 6:22 

     This program is part of the open-source Quantum ESPRESSO suite
     for quantum simulation of materials; please cite
         "P. Giannozzi et al., J. Phys.:Condens. Matter 21 395502 (2009);
         "P. Giannozzi et al., J. Phys.:Condens. Matter 29 465901 (2017);
         "P. Giannozzi et al., J. Chem. Phys. 152 154105 (2020);
          URL http://www.quantum-espresso.org", 
     in publications or presentations arising from this work. More details at
     http://www.quantum-espresso.org/quote

     Parallel version (MPI), running on     1 processors

     MPI processes distributed on     1 nodes
     466 MiB available memory on the printing compute node when the environment starts

     Waiting for input...
     Reading input from standard input
Warning: card &CELL ignored
Warning: card / ignored

     Current dimensions of program PWSCF are:
     Max number of different atomic species (ntypx) = 10
     Max number of k-points (npk) =  40000
     Max angular momentum in pseudopotentials (lmaxx) =  4
     Message from routine setup:
     using ibrav=0 with symmetry is DISCOURAGED, use correct ibrav instead

     Subspace diagonalization in iterative solution of the eigenvalue problem:
     a serial algorithm will be used


     G-vector sticks info
     --------------------
     sticks:   dense  smooth     PW     G-vecs:    dense   smooth      PW
     Sum         379     379    121                 4957     4957     941

     Using Slab Decomposition



     bravais-lattice index     =            0
     lattice parameter (alat)  =       7.4532  a.u.
     unit-cell volume          =     292.7657 (a.u.)^3
     number of atoms/cell      =            2
     number of atomic types    =            1
     number of electrons       =        28.00
     number of Kohn-Sham states=           14
     kinetic-energy cutoff     =      25.0000  Ry
     charge density cutoff     =     100.0000  Ry
     scf convergence threshold =      1.0E-07
     mixing beta               =       0.5000
     number of iterations used =            8  plain     mixing
     Exchange-correlation=  SLA  PZ   NOGX NOGC
                           (   1   1   0   0   0   0   0)

     celldm(1)=   7.453239  celldm(2)=   0.000000  celldm(3)=   0.000000
     celldm(4)=   0.000000  celldm(5)=   0.000000  celldm(6)=   0.000000

     crystal axes: (cart. coord. in units of alat)
               a(1) = (   0.000000   0.707107   0.707107 )  
               a(2) = (   0.707107   0.000000   0.707107 )  
               a(3) = (   0.707107   0.707107   0.000000 )  

     reciprocal axes: (cart. coord. in units 2 pi/alat)
               b(1) = ( -0.707107  0.707107  0.707107 )  
               b(2) = (  0.707107 -0.707107  0.707107 )  
               b(3) = (  0.707107  0.707107 -0.707107 )  


     PseudoPot. # 1 for Ge read from file:
     /home/bond/Software/QE/qe-7.4.1/pseudo/ge_lda_v1.4.uspp.F.UPF
     MD5 check sum: bf9d52b59cc8a669818bb2b52e0c2ba0
     Pseudo is Ultrasoft + core correction, Zval = 14.0
     Generated by new atomic code, or converted to UPF format
     Using radial grid of  873 points,  6 beta functions with: 
                l(1) =   0
                l(2) =   0
                l(3) =   1
                l(4) =   1
                l(5) =   2
                l(6) =   2
     Q(r) pseudized with  8 coefficients,  rinner =    1.400   1.400   1.400
                                                       1.400   1.400

     atomic species   valence    mass     pseudopotential
     Ge               14.00    72.63000     Ge( 1.00)

     24 Sym. Ops. (no inversion) found



   Cartesian axes

     site n.     atom                  positions (alat units)
         1        Ge     tau(   1) = (   0.0000000   0.0000000   0.0000000  )
         2        Ge     tau(   2) = (   0.3535523   0.3535523   0.3535523  )

     number of k points=    47
                       cart. coord. in units 2pi/alat
        k(    1) = (   0.0000000   0.0000000   0.0000000), wk =   0.0020000
        k(    2) = (   0.0707107   0.0707107  -0.0707107), wk =   0.0160000
        k(    3) = (   0.1414214   0.1414214  -0.1414214), wk =   0.0160000
        k(    4) = (   0.2121320   0.2121320  -0.2121320), wk =   0.0160000
        k(    5) = (   0.2828427   0.2828427  -0.2828427), wk =   0.0160000
        k(    6) = (  -0.3535534  -0.3535534   0.3535534), wk =   0.0080000
        k(    7) = (   0.1414214   0.0000000   0.0000000), wk =   0.0120000
        k(    8) = (   0.2121320   0.0707107  -0.0707107), wk =   0.0480000
        k(    9) = (   0.2828427   0.1414214  -0.1414214), wk =   0.0480000
        k(   10) = (   0.3535534   0.2121320  -0.2121320), wk =   0.0480000
        k(   11) = (  -0.2828427  -0.4242641   0.4242641), wk =   0.0480000
        k(   12) = (  -0.2121320  -0.3535534   0.3535534), wk =   0.0480000
        k(   13) = (  -0.1414214  -0.2828427   0.2828427), wk =   0.0480000
        k(   14) = (  -0.0707107  -0.2121320   0.2121320), wk =   0.0480000
        k(   15) = (   0.0000000  -0.1414214   0.1414214), wk =   0.0240000
        k(   16) = (   0.2828427   0.0000000   0.0000000), wk =   0.0120000
        k(   17) = (   0.3535534   0.0707107  -0.0707107), wk =   0.0480000
        k(   18) = (   0.4242641   0.1414214  -0.1414214), wk =   0.0480000
        k(   19) = (  -0.2121320  -0.4949747   0.4949747), wk =   0.0480000
        k(   20) = (  -0.1414214  -0.4242641   0.4242641), wk =   0.0480000
        k(   21) = (  -0.0707107  -0.3535534   0.3535534), wk =   0.0480000
        k(   22) = (   0.0000000  -0.2828427   0.2828427), wk =   0.0240000
        k(   23) = (   0.4242641   0.0000000   0.0000000), wk =   0.0120000
        k(   24) = (   0.4949747   0.0707107  -0.0707107), wk =   0.0480000
        k(   25) = (  -0.1414214  -0.5656854   0.5656854), wk =   0.0480000
        k(   26) = (  -0.0707107  -0.4949747   0.4949747), wk =   0.0480000
        k(   27) = (  -0.0000000  -0.4242641   0.4242641), wk =   0.0240000
        k(   28) = (   0.5656854   0.0000000   0.0000000), wk =   0.0120000
        k(   29) = (  -0.0707107  -0.6363961   0.6363961), wk =   0.0480000
        k(   30) = (   0.0000000  -0.5656854   0.5656854), wk =   0.0240000
        k(   31) = (  -0.7071068   0.0000000   0.0000000), wk =   0.0060000
        k(   32) = (   0.2828427   0.1414214   0.0000000), wk =   0.0480000
        k(   33) = (   0.3535534   0.2121320  -0.0707107), wk =   0.0960000
        k(   34) = (  -0.2828427  -0.4242641   0.5656854), wk =   0.0960000
        k(   35) = (  -0.2121320  -0.3535534   0.4949747), wk =   0.0480000
        k(   36) = (   0.4242641   0.1414214  -0.0000000), wk =   0.0480000
        k(   37) = (  -0.2121320  -0.4949747   0.6363961), wk =   0.0960000
        k(   38) = (  -0.1414214  -0.4242641   0.5656854), wk =   0.0960000
        k(   39) = (  -0.0707107  -0.3535534   0.4949747), wk =   0.0960000
        k(   40) = (   0.0000000  -0.2828427   0.4242641), wk =   0.0480000
        k(   41) = (  -0.1414214  -0.5656854   0.7071068), wk =   0.0480000
        k(   42) = (  -0.0707107  -0.4949747   0.6363961), wk =   0.0960000
        k(   43) = (  -0.0000000  -0.4242641   0.5656854), wk =   0.0480000
        k(   44) = (  -0.7071068   0.1414214   0.0000000), wk =   0.0240000
        k(   45) = (  -0.1414214  -0.4242641   0.7071068), wk =   0.0480000
        k(   46) = (  -0.0707107  -0.3535534   0.6363961), wk =   0.0480000
        k(   47) = (  -0.7071068   0.2828427   0.0000000), wk =   0.0240000

     Dense  grid:     4957 G-vectors     FFT dimensions: (  24,  24,  24)

     Estimated max dynamical RAM per process >      25.69 MB

     Check: negative core charge=   -0.000683

     Initial potential from superposition of free atoms

     starting charge      27.9986, renormalised to      28.0000
     Starting wfcs are   18 randomized atomic wfcs

     total cpu time spent up to now is        1.1 secs

     Self-consistent Calculation

     iteration #  1     ecut=    25.00 Ry     beta= 0.50
     Davidson diagonalization with overlap
     ethr =  1.00E-02,  avg # of iterations =  1.8

     Threshold (ethr) on eigenvalues was too large:
     Diagonalizing with lowered threshold

     Davidson diagonalization with overlap
     ethr =  1.71E-04,  avg # of iterations =  1.9

     total cpu time spent up to now is        2.4 secs

     total energy              =    -425.91981752 Ry
     estimated scf accuracy    <       0.05167663 Ry

     iteration #  2     ecut=    25.00 Ry     beta= 0.50
     Davidson diagonalization with overlap
     ethr =  1.85E-04,  avg # of iterations =  1.0

     total cpu time spent up to now is        3.0 secs

     total energy              =    -425.92034598 Ry
     estimated scf accuracy    <       0.00697748 Ry

     iteration #  3     ecut=    25.00 Ry     beta= 0.50
     Davidson diagonalization with overlap
     ethr =  2.49E-05,  avg # of iterations =  2.0

     total cpu time spent up to now is        3.7 secs

     total energy              =    -425.92098053 Ry
     estimated scf accuracy    <       0.00011829 Ry

     iteration #  4     ecut=    25.00 Ry     beta= 0.50
     Davidson diagonalization with overlap
     ethr =  4.22E-07,  avg # of iterations =  3.6

     total cpu time spent up to now is        4.8 secs

     total energy              =    -425.92101694 Ry
     estimated scf accuracy    <       0.00000889 Ry

     iteration #  5     ecut=    25.00 Ry     beta= 0.50
     Davidson diagonalization with overlap
     ethr =  3.18E-08,  avg # of iterations =  2.5

     total cpu time spent up to now is        5.7 secs

     total energy              =    -425.92101813 Ry
     estimated scf accuracy    <       0.00000021 Ry

     iteration #  6     ecut=    25.00 Ry     beta= 0.50
     Davidson diagonalization with overlap
     ethr =  7.34E-10,  avg # of iterations =  4.1

     total cpu time spent up to now is        7.0 secs

     End of self-consistent calculation

          k = 0.0000 0.0000 0.0000 (   609 PWs)   bands (ev):

   -16.6848 -16.6848 -16.6372 -16.6371 -16.6371 -16.4015 -16.4014 -16.4014
   -16.3168 -16.3168  -4.4205   8.7175   8.7179   8.7179

          k = 0.0707 0.0707-0.0707 (   612 PWs)   bands (ev):

   -16.6824 -16.6824 -16.6570 -16.6464 -16.6464 -16.3977 -16.3977 -16.3544
   -16.3405 -16.3405  -4.2938   6.8513   8.4740   8.4743

          k = 0.1414 0.1414-0.1414 (   604 PWs)   bands (ev):

   -16.6786 -16.6786 -16.6749 -16.5785 -16.5785 -16.3975 -16.3975 -16.3460
   -16.3298 -16.3298  -3.9206   4.8347   8.0122   8.0125

          k = 0.2121 0.2121-0.2121 (   613 PWs)   bands (ev):

   -16.7144 -16.7144 -16.6849 -16.5698 -16.5698 -16.4333 -16.4333 -16.3897
   -16.3333 -16.3333  -3.3308   3.0011   7.6043   7.6046

          k = 0.2828 0.2828-0.2828 (   610 PWs)   bands (ev):

   -16.7177 -16.7177 -16.6744 -16.5619 -16.5619 -16.4158 -16.4158 -16.3862
   -16.3278 -16.3278  -2.6331   1.5363   7.3421   7.3424

          k =-0.3536-0.3536 0.3536 (   610 PWs)   bands (ev):

   -16.7421 -16.7421 -16.6247 -16.5400 -16.5400 -16.4394 -16.4394 -16.4156
   -16.3018 -16.3018  -2.2354   0.8799   7.2527   7.2530

          k = 0.1414 0.0000 0.0000 (   609 PWs)   bands (ev):

   -16.6754 -16.6743 -16.6743 -16.6485 -16.5980 -16.4137 -16.3587 -16.3583
   -16.3583 -16.3342  -4.2512   6.8257   8.0537   8.0538

          k = 0.2121 0.0707-0.0707 (   609 PWs)   bands (ev):

   -16.6905 -16.6892 -16.6654 -16.6357 -16.5812 -16.4312 -16.3789 -16.3516
   -16.3396 -16.3184  -3.9586   5.2985   7.5550   7.5936

          k = 0.2828 0.1414-0.1414 (   612 PWs)   bands (ev):

   -16.7157 -16.7135 -16.6700 -16.5952 -16.5653 -16.4263 -16.4205 -16.3743
   -16.3438 -16.3191  -3.4354   3.5274   7.0470   7.1770

          k = 0.3536 0.2121-0.2121 (   610 PWs)   bands (ev):

   -16.7317 -16.7286 -16.6618 -16.5545 -16.5514 -16.4374 -16.4288 -16.3877
   -16.3137 -16.2993  -2.7504   1.9670   6.5785   6.9874

          k =-0.2828-0.4243 0.4243 (   616 PWs)   bands (ev):

   -16.7475 -16.7323 -16.6611 -16.5518 -16.5479 -16.4452 -16.4379 -16.4037
   -16.3300 -16.3187  -2.1736   0.9809   6.2723   7.0025

          k =-0.2121-0.3536 0.3536 (   615 PWs)   bands (ev):

   -16.7406 -16.7368 -16.6649 -16.5544 -16.5536 -16.4520 -16.4365 -16.3795
   -16.3244 -16.3229  -2.3200   1.2117   6.1630   7.2140

          k =-0.1414-0.2828 0.2828 (   614 PWs)   bands (ev):

   -16.7285 -16.7202 -16.6775 -16.5973 -16.5564 -16.4335 -16.4233 -16.3929
   -16.3294 -16.3146  -2.9904   2.4527   6.2760   7.5914

          k =-0.0707-0.2121 0.2121 (   616 PWs)   bands (ev):

   -16.7079 -16.6915 -16.6849 -16.6091 -16.5754 -16.4422 -16.3983 -16.3759
   -16.3677 -16.3594  -3.6350   4.0961   6.6468   8.0666

          k = 0.0000-0.1414 0.1414 (   608 PWs)   bands (ev):

   -16.6928 -16.6807 -16.6737 -16.6291 -16.5718 -16.4249 -16.3717 -16.3662
   -16.3411 -16.3189  -4.0843   5.7546   7.3915   8.4691

          k = 0.2828 0.0000 0.0000 (   604 PWs)   bands (ev):

   -16.7010 -16.7010 -16.6617 -16.6472 -16.5543 -16.4300 -16.3524 -16.3171
   -16.3077 -16.3077  -3.7466   4.8849   7.0309   7.0310

          k = 0.3536 0.0707-0.0707 (   616 PWs)   bands (ev):

   -16.7287 -16.7258 -16.6677 -16.6259 -16.5449 -16.4665 -16.4103 -16.3526
   -16.3381 -16.3377  -3.2962   3.6569   6.4044   6.6353

          k = 0.4243 0.1414-0.1414 (   617 PWs)   bands (ev):

   -16.7414 -16.7370 -16.6524 -16.5778 -16.5352 -16.4851 -16.4272 -16.3880
   -16.3327 -16.3297  -2.6503   2.2733   5.6834   6.4424

          k =-0.2121-0.4950 0.4950 (   620 PWs)   bands (ev):

   -16.7518 -16.7431 -16.6431 -16.5447 -16.5302 -16.4842 -16.4709 -16.4062
   -16.3253 -16.3249  -1.9756   1.1581   5.1354   6.4741

          k =-0.1414-0.4243 0.4243 (   615 PWs)   bands (ev):

   -16.7419 -16.7397 -16.6294 -16.5590 -16.5208 -16.4657 -16.4591 -16.4041
   -16.3140 -16.2940  -1.8449   0.9743   4.8467   6.7237

          k =-0.0707-0.3536 0.3536 (   618 PWs)   bands (ev):

   -16.7536 -16.7220 -16.6489 -16.5847 -16.5359 -16.4615 -16.4459 -16.4091
   -16.3332 -16.3123  -2.4398   1.8913   4.8872   7.1545

          k = 0.0000-0.2828 0.2828 (   614 PWs)   bands (ev):

   -16.7231 -16.6936 -16.6625 -16.6130 -16.5503 -16.4377 -16.4069 -16.3979
   -16.3390 -16.3352  -3.1203   3.1081   5.4194   7.6746

          k = 0.4243 0.0000 0.0000 (   620 PWs)   bands (ev):

   -16.7435 -16.7435 -16.6498 -16.6037 -16.5180 -16.4910 -16.4644 -16.3566
   -16.3392 -16.3392  -2.9178   3.0093   6.2021   6.2022

          k = 0.4950 0.0707-0.0707 (   622 PWs)   bands (ev):

   -16.7625 -16.7584 -16.6360 -16.5960 -16.5249 -16.4880 -16.4527 -16.3807
   -16.3354 -16.3311  -2.3254   2.0002   5.5516   5.9685

          k =-0.1414-0.5657 0.5657 (   623 PWs)   bands (ev):

   -16.7560 -16.7465 -16.6200 -16.5554 -16.5454 -16.5133 -16.4674 -16.4173
   -16.3243 -16.3180  -1.6165   1.0209   4.7228   5.9657

          k =-0.0707-0.4950 0.4950 (   624 PWs)   bands (ev):

   -16.7530 -16.7363 -16.6116 -16.5458 -16.5336 -16.5130 -16.4975 -16.4113
   -16.3410 -16.3213  -1.2515   0.5941   4.1820   6.1930

          k =-0.0000-0.4243 0.4243 (   618 PWs)   bands (ev):

   -16.7469 -16.7257 -16.6220 -16.5368 -16.5175 -16.5015 -16.4740 -16.4119
   -16.3229 -16.3142  -1.7534   1.1731   4.1634   6.6184

          k = 0.5657 0.0000 0.0000 (   620 PWs)   bands (ev):

   -16.7420 -16.7420 -16.6152 -16.5738 -16.5485 -16.5035 -16.4619 -16.3975
   -16.3241 -16.3241  -1.7857   1.2338   5.6812   5.6813

          k =-0.0707-0.6364 0.6364 (   618 PWs)   bands (ev):

   -16.7497 -16.7475 -16.5987 -16.5582 -16.5371 -16.4829 -16.4431 -16.4123
   -16.3271 -16.3217  -1.0814   0.3946   5.1190   5.6234

          k = 0.0000-0.5657 0.5657 (   628 PWs)   bands (ev):

   -16.7711 -16.7488 -16.5974 -16.5743 -16.5346 -16.5261 -16.4978 -16.4213
   -16.3383 -16.3329  -0.6681   0.0047   4.3858   5.8019

          k =-0.7071 0.0000 0.0000 (   636 PWs)   bands (ev):

   -16.7635 -16.7635 -16.6009 -16.6009 -16.5435 -16.5435 -16.4548 -16.4548
   -16.3845 -16.3845  -0.3852  -0.3849   5.5043   5.5044

          k = 0.2828 0.1414 0.0000 (   611 PWs)   bands (ev):

   -16.7105 -16.7050 -16.6727 -16.6218 -16.5551 -16.4408 -16.3927 -16.3478
   -16.3411 -16.3297  -3.5880   4.2347   6.3862   7.5076

          k = 0.3536 0.2121-0.0707 (   618 PWs)   bands (ev):

   -16.7410 -16.7243 -16.6632 -16.5927 -16.5482 -16.4659 -16.4259 -16.4027
   -16.3383 -16.3295  -3.0013   2.8352   5.6861   7.1105

          k =-0.2828-0.4243 0.5657 (   619 PWs)   bands (ev):

   -16.7523 -16.7418 -16.6461 -16.5771 -16.5325 -16.4717 -16.4433 -16.4133
   -16.3309 -16.3090  -2.3013   1.5294   5.3623   6.7524

          k =-0.2121-0.3536 0.4950 (   612 PWs)   bands (ev):

   -16.7326 -16.7321 -16.6319 -16.5358 -16.5297 -16.4647 -16.4364 -16.4093
   -16.3067 -16.2993  -1.8939   0.9056   5.2695   6.6154

          k = 0.4243 0.1414-0.0000 (   616 PWs)   bands (ev):

   -16.7470 -16.7344 -16.6530 -16.5931 -16.5172 -16.4847 -16.4346 -16.3788
   -16.3195 -16.3189  -2.7770   2.6890   5.6075   6.3521

          k =-0.2121-0.4950 0.6364 (   620 PWs)   bands (ev):

   -16.7526 -16.7416 -16.6221 -16.5658 -16.5141 -16.5044 -16.4726 -16.4216
   -16.3173 -16.3045  -2.0914   1.6042   4.9444   6.0272

          k =-0.1414-0.4243 0.5657 (   619 PWs)   bands (ev):

   -16.7462 -16.7367 -16.6169 -16.5522 -16.5305 -16.4956 -16.4609 -16.4101
   -16.3200 -16.3141  -1.4997   0.8079   4.5125   5.9695

          k =-0.0707-0.3536 0.4950 (   625 PWs)   bands (ev):

   -16.7541 -16.7411 -16.6209 -16.5614 -16.5193 -16.5086 -16.4944 -16.4367
   -16.3280 -16.3229  -1.6853   1.0485   4.3879   6.2109

          k = 0.0000-0.2828 0.4243 (   623 PWs)   bands (ev):

   -16.7599 -16.7314 -16.6429 -16.5845 -16.5348 -16.4857 -16.4535 -16.4353
   -16.3384 -16.3164  -2.3710   1.9694   4.7231   6.6614

          k =-0.1414-0.5657 0.7071 (   623 PWs)   bands (ev):

   -16.7477 -16.7448 -16.6307 -16.5668 -16.5497 -16.4843 -16.4806 -16.4015
   -16.3297 -16.3243  -1.6803   1.1394   5.1757   5.5310

          k =-0.0707-0.4950 0.6364 (   624 PWs)   bands (ev):

   -16.7521 -16.7424 -16.6047 -16.5576 -16.5402 -16.5075 -16.4880 -16.4243
   -16.3282 -16.3237  -0.9873   0.3717   4.5182   5.4340

          k =-0.0000-0.4243 0.5657 (   620 PWs)   bands (ev):

   -16.7499 -16.7364 -16.6028 -16.5245 -16.5161 -16.5093 -16.5065 -16.4118
   -16.3301 -16.3067  -1.0226   0.4265   4.1213   5.7106

          k =-0.7071 0.1414 0.0000 (   622 PWs)   bands (ev):

   -16.7513 -16.7512 -16.5816 -16.5816 -16.5314 -16.5314 -16.4334 -16.4334
   -16.3244 -16.3244  -0.3489  -0.3486   5.1398   5.1399

          k =-0.1414-0.4243 0.7071 (   629 PWs)   bands (ev):

   -16.7564 -16.7548 -16.6017 -16.5440 -16.5411 -16.5176 -16.5052 -16.4676
   -16.3396 -16.3196  -1.3957   0.8486   4.4471   5.4627

          k =-0.0707-0.3536 0.6364 (   624 PWs)   bands (ev):

   -16.7488 -16.7423 -16.5938 -16.5487 -16.5322 -16.5154 -16.4975 -16.4591
   -16.3151 -16.3142  -0.9220   0.3485   4.3026   5.2134

          k =-0.7071 0.2828 0.0000 (   620 PWs)   bands (ev):

   -16.7389 -16.7389 -16.5787 -16.5787 -16.5049 -16.5049 -16.4560 -16.4560
   -16.3204 -16.3204  -0.2872  -0.2869   4.6795   4.6797

     highest occupied level (ev):     8.7179

!    total energy              =    -425.92101829 Ry
     estimated scf accuracy    <       0.00000002 Ry

     The total energy is the sum of the following terms:
     one-electron contribution =    -273.49382895 Ry
     hartree contribution      =     162.28191503 Ry
     xc contribution           =    -114.37417094 Ry
     ewald contribution        =    -200.33493343 Ry

     convergence has been achieved in   6 iterations

     Forces acting on atoms (cartesian axes, Ry/au):

     atom    1 type  1   force =     0.00000000   -0.00000000    0.00000000
     atom    2 type  1   force =    -0.00000000   -0.00000000   -0.00000000

     Total force =     0.000000     Total SCF correction =     0.000002


     Computing stress (Cartesian axis) and pressure

          total   stress  (Ry/bohr**3)                   (kbar)     P=     -760.02
  -0.00516650  -0.00000000  -0.00000000         -760.02       -0.00       -0.00
  -0.00000000  -0.00516650   0.00000000           -0.00     -760.02        0.00
   0.00000000  -0.00000000  -0.00516650            0.00       -0.00     -760.02

     Message from routine punch:
     Nothing written, as per user request (disk_io='none')

     init_run     :      0.84s CPU      0.88s WALL (       1 calls)
     electrons    :      5.70s CPU      5.94s WALL (       1 calls)
     forces       :      0.07s CPU      0.07s WALL (       1 calls)
     stress       :      0.49s CPU      0.50s WALL (       1 calls)

     Called by init_run:
     wfcinit      :      0.44s CPU      0.45s WALL (       1 calls)
     potinit      :      0.01s CPU      0.02s WALL (       1 calls)
     hinit0       :      0.36s CPU      0.37s WALL (       1 calls)

     Called by electrons:
     c_bands      :      4.75s CPU      4.96s WALL (       7 calls)
     sum_band     :      0.83s CPU      0.86s WALL (       7 calls)
     v_of_rho     :      0.01s CPU      0.01s WALL (       7 calls)
     newd         :      0.12s CPU      0.14s WALL (       7 calls)
     mix_rho      :      0.00s CPU      0.00s WALL (       7 calls)

     Called by c_bands:
     init_us_2    :      0.19s CPU      0.20s WALL (     799 calls)
     cegterg      :      4.30s CPU      4.50s WALL (     329 calls)

     Called by *egterg:
     cdiaghg      :      0.30s CPU      0.33s WALL (    1081 calls)
     h_psi        :      3.79s CPU      3.96s WALL (    1175 calls)
     s_psi        :      0.11s CPU      0.11s WALL (    1175 calls)
     g_psi        :      0.02s CPU      0.02s WALL (     799 calls)

     Called by h_psi:
     h_psi:calbec :      0.15s CPU      0.15s WALL (    1175 calls)
     vloc_psi     :      3.49s CPU      3.65s WALL (    1175 calls)
     add_vuspsi   :      0.12s CPU      0.12s WALL (    1175 calls)

     General routines
     calbec       :      0.27s CPU      0.28s WALL (    2303 calls)
     fft          :      0.17s CPU      0.17s WALL (      37 calls)
     ffts         :      0.00s CPU      0.00s WALL (       7 calls)
     fftw         :      3.50s CPU      3.63s WALL (   29710 calls)

     Parallel routines

     PWSCF        :      7.27s CPU      7.57s WALL


   This run was terminated on:   2: 6:29   8Oct2025            

=------------------------------------------------------------------------------=
   JOB DONE.
=------------------------------------------------------------------------------=
