Header of the LAMMPS data file 

9 atoms 
1 atom types

0.0 12.36756904133922  xlo xhi
0.0 8.745191935923772  ylo yhi
0.0 18.0  zlo zhi

Masses 

1  26.9815385

Atoms # atomic 

1 1 0.00000 0.00000 9.00000 
2 1 4.12252 0.00000 9.00000 
3 1 8.24505 0.00000 9.00000 
4 1 0.00000 2.91506 9.00000 
5 1 4.12252 2.91506 9.00000 
6 1 8.24505 2.91506 9.00000 
7 1 0.00000 5.83013 9.00000 
8 1 4.12252 5.83013 9.00000 
9 1 8.24505 5.83013 9.00000 
