
     Program PWSCF v.7.4.1 starts on  7Oct2025 at 23:57:16 

     This program is part of the open-source Quantum ESPRESSO suite
     for quantum simulation of materials; please cite
         "P. Giannozzi et al., J. Phys.:Condens. Matter 21 395502 (2009);
         "P. Giannozzi et al., J. Phys.:Condens. Matter 29 465901 (2017);
         "P. Giannozzi et al., J. Chem. Phys. 152 154105 (2020);
          URL http://www.quantum-espresso.org", 
     in publications or presentations arising from this work. More details at
     http://www.quantum-espresso.org/quote

     Parallel version (MPI), running on     1 processors

     MPI processes distributed on     1 nodes
     230 MiB available memory on the printing compute node when the environment starts

     Waiting for input...
     Reading input from standard input
Warning: card &CELL ignored
Warning: card / ignored

     Current dimensions of program PWSCF are:
     Max number of different atomic species (ntypx) = 10
     Max number of k-points (npk) =  40000
     Max angular momentum in pseudopotentials (lmaxx) =  4
     Message from routine setup:
     using ibrav=0 with symmetry is DISCOURAGED, use correct ibrav instead

     Subspace diagonalization in iterative solution of the eigenvalue problem:
     a serial algorithm will be used


     G-vector sticks info
     --------------------
     sticks:   dense  smooth     PW     G-vecs:    dense   smooth      PW
     Sum         313     313    109                 3695     3695     725

     Using Slab Decomposition



     bravais-lattice index     =            0
     lattice parameter (alat)  =       7.5604  a.u.
     unit-cell volume          =     305.5804 (a.u.)^3
     number of atoms/cell      =            2
     number of atomic types    =            1
     number of electrons       =        28.00
     number of Kohn-Sham states=           14
     kinetic-energy cutoff     =      20.0000  Ry
     charge density cutoff     =      80.0000  Ry
     scf convergence threshold =      1.0E-07
     mixing beta               =       0.5000
     number of iterations used =            8  plain     mixing
     Exchange-correlation=  SLA  PZ   NOGX NOGC
                           (   1   1   0   0   0   0   0)

     celldm(1)=   7.560435  celldm(2)=   0.000000  celldm(3)=   0.000000
     celldm(4)=   0.000000  celldm(5)=   0.000000  celldm(6)=   0.000000

     crystal axes: (cart. coord. in units of alat)
               a(1) = (   0.000000   0.707107   0.707107 )  
               a(2) = (   0.707107   0.000000   0.707107 )  
               a(3) = (   0.707107   0.707107   0.000000 )  

     reciprocal axes: (cart. coord. in units 2 pi/alat)
               b(1) = ( -0.707107  0.707107  0.707107 )  
               b(2) = (  0.707107 -0.707107  0.707107 )  
               b(3) = (  0.707107  0.707107 -0.707107 )  


     PseudoPot. # 1 for Ge read from file:
     /home/bond/Software/QE/qe-7.4.1/pseudo/ge_lda_v1.4.uspp.F.UPF
     MD5 check sum: bf9d52b59cc8a669818bb2b52e0c2ba0
     Pseudo is Ultrasoft + core correction, Zval = 14.0
     Generated by new atomic code, or converted to UPF format
     Using radial grid of  873 points,  6 beta functions with: 
                l(1) =   0
                l(2) =   0
                l(3) =   1
                l(4) =   1
                l(5) =   2
                l(6) =   2
     Q(r) pseudized with  8 coefficients,  rinner =    1.400   1.400   1.400
                                                       1.400   1.400

     atomic species   valence    mass     pseudopotential
     Ge               14.00    72.63000     Ge( 1.00)

     48 Sym. Ops., with inversion, found (24 have fractional translation)



   Cartesian axes

     site n.     atom                  positions (alat units)
         1        Ge     tau(   1) = (   0.0000000   0.0000000   0.0000000  )
         2        Ge     tau(   2) = (   0.3535534   0.3535534   0.3535534  )

     number of k points=     8
                       cart. coord. in units 2pi/alat
        k(    1) = (   0.0000000   0.0000000   0.0000000), wk =   0.0312500
        k(    2) = (   0.1767767   0.1767767  -0.1767767), wk =   0.2500000
        k(    3) = (  -0.3535534  -0.3535534   0.3535534), wk =   0.1250000
        k(    4) = (   0.3535534   0.0000000   0.0000000), wk =   0.1875000
        k(    5) = (  -0.1767767  -0.5303301   0.5303301), wk =   0.7500000
        k(    6) = (   0.0000000  -0.3535534   0.3535534), wk =   0.3750000
        k(    7) = (  -0.7071068   0.0000000   0.0000000), wk =   0.0937500
        k(    8) = (  -0.7071068   0.3535534   0.0000000), wk =   0.1875000

     Dense  grid:     3695 G-vectors     FFT dimensions: (  24,  24,  24)

     Estimated max dynamical RAM per process >      15.68 MB

     Check: negative core charge=   -0.002127

     Initial potential from superposition of free atoms

     starting charge      27.9986, renormalised to      28.0000
     Starting wfcs are   18 randomized atomic wfcs

     total cpu time spent up to now is        0.7 secs

     Self-consistent Calculation

     iteration #  1     ecut=    20.00 Ry     beta= 0.50
     Davidson diagonalization with overlap
     ethr =  1.00E-02,  avg # of iterations =  1.9

     Threshold (ethr) on eigenvalues was too large:
     Diagonalizing with lowered threshold

     Davidson diagonalization with overlap
     ethr =  6.85E-04,  avg # of iterations =  1.0

     total cpu time spent up to now is        0.9 secs

     total energy              =    -424.70139220 Ry
     estimated scf accuracy    <       0.19998555 Ry

     iteration #  2     ecut=    20.00 Ry     beta= 0.50
     Davidson diagonalization with overlap
     ethr =  7.14E-04,  avg # of iterations =  2.0

     total cpu time spent up to now is        1.1 secs

     total energy              =    -424.71975511 Ry
     estimated scf accuracy    <       0.01442272 Ry

     iteration #  3     ecut=    20.00 Ry     beta= 0.50
     Davidson diagonalization with overlap
     ethr =  5.15E-05,  avg # of iterations =  2.0

     total cpu time spent up to now is        1.2 secs

     total energy              =    -424.72091799 Ry
     estimated scf accuracy    <       0.00066599 Ry

     iteration #  4     ecut=    20.00 Ry     beta= 0.50
     Davidson diagonalization with overlap
     ethr =  2.38E-06,  avg # of iterations =  2.2

     total cpu time spent up to now is        1.4 secs

     total energy              =    -424.72103125 Ry
     estimated scf accuracy    <       0.00000697 Ry

     iteration #  5     ecut=    20.00 Ry     beta= 0.50
     Davidson diagonalization with overlap
     ethr =  2.49E-08,  avg # of iterations =  5.1

     total cpu time spent up to now is        1.6 secs

     total energy              =    -424.72103557 Ry
     estimated scf accuracy    <       0.00000043 Ry

     iteration #  6     ecut=    20.00 Ry     beta= 0.50
     Davidson diagonalization with overlap
     ethr =  1.54E-09,  avg # of iterations =  2.8

     total cpu time spent up to now is        1.7 secs

     End of self-consistent calculation

          k = 0.0000 0.0000 0.0000 (   459 PWs)   bands (ev):

   -18.3343 -18.3343 -18.3343 -18.0755 -18.0755 -17.9328 -17.9328 -17.8328
   -17.8328 -17.8328  -4.6039   7.8417   8.1776   8.1776

          k = 0.1768 0.1768-0.1768 (   477 PWs)   bands (ev):

   -18.4376 -18.4376 -18.4083 -18.4083 -18.3341 -18.2306 -18.1612 -18.1612
   -18.0490 -18.0490  -3.8706   3.3879   7.3130   7.3130

          k =-0.3536-0.3536 0.3536 (   464 PWs)   bands (ev):

   -18.4381 -18.4381 -18.3654 -18.1973 -18.1973 -18.1609 -18.0293 -18.0293
   -17.8319 -17.8319  -2.5501   0.5609   6.7996   6.7996

          k = 0.3536 0.0000 0.0000 (   456 PWs)   bands (ev):

   -18.2795 -18.2286 -18.2286 -18.0749 -18.0601 -17.9911 -17.9785 -17.9504
   -17.9504 -17.9134  -3.6045   3.3443   6.1803   6.1803

          k =-0.1768-0.5303 0.5303 (   459 PWs)   bands (ev):

   -18.4286 -18.3107 -18.2488 -18.1802 -18.1509 -18.0623 -18.0088 -17.9696
   -17.8548 -17.8453  -2.1377   0.7313   4.4900   5.8211

          k = 0.0000-0.3536 0.3536 (   463 PWs)   bands (ev):

   -18.3582 -18.2944 -18.2550 -18.2343 -18.1433 -18.1038 -18.0882 -18.0488
   -17.9563 -17.8720  -2.7430   1.5747   4.3579   6.7024

          k =-0.7071 0.0000 0.0000 (   460 PWs)   bands (ev):

   -18.3162 -18.3162 -18.2447 -18.2447 -18.1331 -18.1331 -18.0694 -18.0694
   -17.9186 -17.9186  -0.7652  -0.7652   5.1598   5.1598

          k =-0.7071 0.3536 0.0000 (   464 PWs)   bands (ev):

   -18.4683 -18.4683 -18.1763 -18.1763 -18.1731 -18.1731 -18.1440 -18.1440
   -17.8238 -17.8238  -0.6734  -0.6734   4.3283   4.3283

     highest occupied level (ev):     8.1776

!    total energy              =    -424.72103574 Ry
     estimated scf accuracy    <          2.4E-09 Ry

     The total energy is the sum of the following terms:
     one-electron contribution =    -274.73414504 Ry
     hartree contribution      =     161.20208568 Ry
     xc contribution           =    -113.69450115 Ry
     ewald contribution        =    -197.49447522 Ry

     convergence has been achieved in   6 iterations

     Forces acting on atoms (cartesian axes, Ry/au):

     atom    1 type  1   force =     0.00000000    0.00000000   -0.00000000
     atom    2 type  1   force =    -0.00000000   -0.00000000   -0.00000000

     Total force =     0.000000     Total SCF correction =     0.000000


     Computing stress (Cartesian axis) and pressure

          total   stress  (Ry/bohr**3)                   (kbar)     P=    -3121.81
  -0.02122161  -0.00000000   0.00000000        -3121.81       -0.00        0.00
   0.00000000  -0.02122161   0.00000000            0.00    -3121.81        0.00
   0.00000000   0.00000000  -0.02122161            0.00        0.00    -3121.81

     Message from routine punch:
     Nothing written, as per user request (disk_io='none')

     init_run     :      0.50s CPU      0.52s WALL (       1 calls)
     electrons    :      1.02s CPU      1.04s WALL (       1 calls)
     forces       :      0.02s CPU      0.02s WALL (       1 calls)
     stress       :      0.19s CPU      0.19s WALL (       1 calls)

     Called by init_run:
     wfcinit      :      0.16s CPU      0.17s WALL (       1 calls)
     potinit      :      0.01s CPU      0.01s WALL (       1 calls)
     hinit0       :      0.31s CPU      0.32s WALL (       1 calls)

     Called by electrons:
     c_bands      :      0.72s CPU      0.73s WALL (       7 calls)
     sum_band     :      0.22s CPU      0.22s WALL (       7 calls)
     v_of_rho     :      0.01s CPU      0.01s WALL (       7 calls)
     newd         :      0.08s CPU      0.10s WALL (       7 calls)
     mix_rho      :      0.00s CPU      0.00s WALL (       7 calls)

     Called by c_bands:
     init_us_2    :      0.03s CPU      0.03s WALL (     136 calls)
     cegterg      :      0.66s CPU      0.66s WALL (      56 calls)

     Called by *egterg:
     cdiaghg      :      0.05s CPU      0.05s WALL (     184 calls)
     h_psi        :      0.69s CPU      0.70s WALL (     200 calls)
     s_psi        :      0.01s CPU      0.01s WALL (     200 calls)
     g_psi        :      0.00s CPU      0.00s WALL (     136 calls)

     Called by h_psi:
     h_psi:calbec :      0.02s CPU      0.02s WALL (     200 calls)
     vloc_psi     :      0.65s CPU      0.66s WALL (     200 calls)
     add_vuspsi   :      0.01s CPU      0.01s WALL (     200 calls)

     General routines
     calbec       :      0.04s CPU      0.04s WALL (     392 calls)
     fft          :      0.17s CPU      0.17s WALL (      37 calls)
     ffts         :      0.00s CPU      0.00s WALL (       7 calls)
     fftw         :      0.67s CPU      0.67s WALL (    5084 calls)

     Parallel routines

     PWSCF        :      1.88s CPU      1.93s WALL


   This run was terminated on:  23:57:18   7Oct2025            

=------------------------------------------------------------------------------=
   JOB DONE.
=------------------------------------------------------------------------------=
