LAMMPS (22 Jul 2025 - Update 1)
# ---------- 1. Initialize simulation ---------------------
units metal
atom_style atomic
dimension  3
boundary   p p f
read_data /home/bond/Work/Lab1/Surface/LJ/relax/1_4_100/lammps.data
Reading data file ...
  orthogonal box = (0 0 0) to (8.7451919 8.7451919 8)
  1 by 1 by 1 MPI processor grid
  reading atoms ...
  9 atoms
  read_data CPU = 0.001 seconds

# ---------- 2. Specify interatomic potential ---------------------
pair_style lj/cut 4.5
pair_coeff 1 1 0.392 2.620 4.5

# ---------- 3. Run single point calculation  ---------------------
thermo_style custom step pe lx ly lz press pxx pyy pzz
run 0
WARNING: No fixes with time integration, atoms won't move
For more information see https://docs.lammps.org/err0028 (../verlet.cpp:60)
Generated 0 of 0 mixed pair_coeff terms from geometric mixing rule
Neighbor list info ...
  update: every = 1 steps, delay = 0 steps, check = yes
  max neighbors/atom: 2000, page size: 100000
  master list distance cutoff = 6.5
  ghost atom cutoff = 6.5
  binsize = 3.25, bins = 3 3 3
  1 neighbor lists, perpetual/occasional/extra = 1 0 0
  (1) pair lj/cut, perpetual
      attributes: half, newton on
      pair build: half/bin/atomonly/newton
      stencil: half/bin/3d
      bin: standard
Per MPI rank memory allocation (min/avg/max) = 3.051 | 3.051 | 3.051 Mbytes
   Step         PotEng           Lx             Ly             Lz           Press           Pxx            Pyy            Pzz      
         0  -8.7724045      8.7451919      8.7451919      8             -4228.2219     -6342.3328     -6342.3328      0            
Loop time of 1.761e-06 on 1 procs for 0 steps with 9 atoms

170.4% CPU use with 1 MPI tasks x no OpenMP threads

MPI task timing breakdown:
Section |  min time  |  avg time  |  max time  |%varavg| %total
---------------------------------------------------------------
Pair    | 0          | 0          | 0          |   0.0 |  0.00
Neigh   | 0          | 0          | 0          |   0.0 |  0.00
Comm    | 0          | 0          | 0          |   0.0 |  0.00
Output  | 0          | 0          | 0          |   0.0 |  0.00
Modify  | 0          | 0          | 0          |   0.0 |  0.00
Other   |            | 1.761e-06  |            |       |100.00

Nlocal:              9 ave           9 max           9 min
Histogram: 1 0 0 0 0 0 0 0 0 0
Nghost:             55 ave          55 max          55 min
Histogram: 1 0 0 0 0 0 0 0 0 0
Neighs:             54 ave          54 max          54 min
Histogram: 1 0 0 0 0 0 0 0 0 0

Total # of neighbors = 54
Ave neighs/atom = 6
Neighbor list builds = 0
Dangerous builds = 0
# -- include optimization of the unit cell parameter
fix 1 all box/relax x 0.0 y 0.0 couple xy vmax 0.001

# -- enable optimization of atomic positions (and the cell)
min_style cg
minimize 1e-10 1e-10 1000 10000
Generated 0 of 0 mixed pair_coeff terms from geometric mixing rule
WARNING: Energy due to 3 extra global DOFs will be included in minimizer energies
 (../min.cpp:222)
Per MPI rank memory allocation (min/avg/max) = 4.176 | 4.176 | 4.176 Mbytes
   Step         PotEng           Lx             Ly             Lz           Press           Pxx            Pyy            Pzz      
         0  -8.7724045      8.7451919      8.7451919      8             -4228.2219     -6342.3328     -6342.3328      0            
        11  -8.7928615      8.673433       8.673433       8             -0.0080167349  -0.012025102   -0.012025102    0            
Loop time of 0.000146144 on 1 procs for 11 steps with 9 atoms

99.9% CPU use with 1 MPI tasks x no OpenMP threads

Minimization stats:
  Stopping criterion = energy tolerance
  Energy initial, next-to-last, final = 
     -8.77240454236179  -8.79286153795075  -8.79286153846147
  Force two-norm initial, final = 3.4251717 6.4410906e-06
  Force max component initial, final = 2.4219621 4.554375e-06
  Final line search alpha, max atom move = 1 4.554375e-06
  Iterations, force evaluations = 11 14

MPI task timing breakdown:
Section |  min time  |  avg time  |  max time  |%varavg| %total
---------------------------------------------------------------
Pair    | 5.0972e-05 | 5.0972e-05 | 5.0972e-05 |   0.0 | 34.88
Neigh   | 0          | 0          | 0          |   0.0 |  0.00
Comm    | 9.144e-06  | 9.144e-06  | 9.144e-06  |   0.0 |  6.26
Output  | 0          | 0          | 0          |   0.0 |  0.00
Modify  | 0          | 0          | 0          |   0.0 |  0.00
Other   |            | 8.603e-05  |            |       | 58.87

Nlocal:              9 ave           9 max           9 min
Histogram: 1 0 0 0 0 0 0 0 0 0
Nghost:             55 ave          55 max          55 min
Histogram: 1 0 0 0 0 0 0 0 0 0
Neighs:             54 ave          54 max          54 min
Histogram: 1 0 0 0 0 0 0 0 0 0

Total # of neighbors = 54
Ave neighs/atom = 6
Neighbor list builds = 0
Dangerous builds = 0

# ---- 4. Define and print useful variables -------------
variable natoms equal "count(all)"
variable totenergy equal "pe"
variable length equal "lx"

print "Total energy (eV) = ${totenergy}"
Total energy (eV) = -8.79286153846147
print "Number of atoms = ${natoms}"
Number of atoms = 9
print "Lattice constant (Angstoms) = ${length}"
Lattice constant (Angstoms) = 8.67343300381597
Total wall time: 0:00:00
