
     Program PWSCF v.7.4.1 starts on  7Oct2025 at 23:57:14 

     This program is part of the open-source Quantum ESPRESSO suite
     for quantum simulation of materials; please cite
         "P. Giannozzi et al., J. Phys.:Condens. Matter 21 395502 (2009);
         "P. Giannozzi et al., J. Phys.:Condens. Matter 29 465901 (2017);
         "P. Giannozzi et al., J. Chem. Phys. 152 154105 (2020);
          URL http://www.quantum-espresso.org", 
     in publications or presentations arising from this work. More details at
     http://www.quantum-espresso.org/quote

     Parallel version (MPI), running on     1 processors

     MPI processes distributed on     1 nodes
     228 MiB available memory on the printing compute node when the environment starts

     Waiting for input...
     Reading input from standard input
Warning: card &CELL ignored
Warning: card / ignored

     Current dimensions of program PWSCF are:
     Max number of different atomic species (ntypx) = 10
     Max number of k-points (npk) =  40000
     Max angular momentum in pseudopotentials (lmaxx) =  4
     Message from routine setup:
     using ibrav=0 with symmetry is DISCOURAGED, use correct ibrav instead

     Subspace diagonalization in iterative solution of the eigenvalue problem:
     a serial algorithm will be used


     G-vector sticks info
     --------------------
     sticks:   dense  smooth     PW     G-vecs:    dense   smooth      PW
     Sum         241     241     85                 2421     2421     531

     Using Slab Decomposition



     bravais-lattice index     =            0
     lattice parameter (alat)  =       7.5604  a.u.
     unit-cell volume          =     305.5804 (a.u.)^3
     number of atoms/cell      =            2
     number of atomic types    =            1
     number of electrons       =        28.00
     number of Kohn-Sham states=           14
     kinetic-energy cutoff     =      15.0000  Ry
     charge density cutoff     =      60.0000  Ry
     scf convergence threshold =      1.0E-07
     mixing beta               =       0.5000
     number of iterations used =            8  plain     mixing
     Exchange-correlation=  SLA  PZ   NOGX NOGC
                           (   1   1   0   0   0   0   0)

     celldm(1)=   7.560435  celldm(2)=   0.000000  celldm(3)=   0.000000
     celldm(4)=   0.000000  celldm(5)=   0.000000  celldm(6)=   0.000000

     crystal axes: (cart. coord. in units of alat)
               a(1) = (   0.000000   0.707107   0.707107 )  
               a(2) = (   0.707107   0.000000   0.707107 )  
               a(3) = (   0.707107   0.707107   0.000000 )  

     reciprocal axes: (cart. coord. in units 2 pi/alat)
               b(1) = ( -0.707107  0.707107  0.707107 )  
               b(2) = (  0.707107 -0.707107  0.707107 )  
               b(3) = (  0.707107  0.707107 -0.707107 )  


     PseudoPot. # 1 for Ge read from file:
     /home/bond/Software/QE/qe-7.4.1/pseudo/ge_lda_v1.4.uspp.F.UPF
     MD5 check sum: bf9d52b59cc8a669818bb2b52e0c2ba0
     Pseudo is Ultrasoft + core correction, Zval = 14.0
     Generated by new atomic code, or converted to UPF format
     Using radial grid of  873 points,  6 beta functions with: 
                l(1) =   0
                l(2) =   0
                l(3) =   1
                l(4) =   1
                l(5) =   2
                l(6) =   2
     Q(r) pseudized with  8 coefficients,  rinner =    1.400   1.400   1.400
                                                       1.400   1.400

     atomic species   valence    mass     pseudopotential
     Ge               14.00    72.63000     Ge( 1.00)

     48 Sym. Ops., with inversion, found (24 have fractional translation)



   Cartesian axes

     site n.     atom                  positions (alat units)
         1        Ge     tau(   1) = (   0.0000000   0.0000000   0.0000000  )
         2        Ge     tau(   2) = (   0.3535534   0.3535534   0.3535534  )

     number of k points=     8
                       cart. coord. in units 2pi/alat
        k(    1) = (   0.0000000   0.0000000   0.0000000), wk =   0.0312500
        k(    2) = (   0.1767767   0.1767767  -0.1767767), wk =   0.2500000
        k(    3) = (  -0.3535534  -0.3535534   0.3535534), wk =   0.1250000
        k(    4) = (   0.3535534   0.0000000   0.0000000), wk =   0.1875000
        k(    5) = (  -0.1767767  -0.5303301   0.5303301), wk =   0.7500000
        k(    6) = (   0.0000000  -0.3535534   0.3535534), wk =   0.3750000
        k(    7) = (  -0.7071068   0.0000000   0.0000000), wk =   0.0937500
        k(    8) = (  -0.7071068   0.3535534   0.0000000), wk =   0.1875000

     Dense  grid:     2421 G-vectors     FFT dimensions: (  20,  20,  20)

     Estimated max dynamical RAM per process >      10.35 MB

     Check: negative core charge=   -0.006660

     Initial potential from superposition of free atoms

     starting charge      27.9986, renormalised to      28.0000

     negative rho (up, down):  9.867E-04 0.000E+00
     Starting wfcs are   18 randomized atomic wfcs

     total cpu time spent up to now is        0.6 secs

     Self-consistent Calculation

     iteration #  1     ecut=    15.00 Ry     beta= 0.50
     Davidson diagonalization with overlap
     ethr =  1.00E-02,  avg # of iterations =  2.0

     negative rho (up, down):  1.122E-03 0.000E+00

     total cpu time spent up to now is        0.7 secs

     total energy              =    -417.60324580 Ry
     estimated scf accuracy    <       2.24009472 Ry

     iteration #  2     ecut=    15.00 Ry     beta= 0.50
     Davidson diagonalization with overlap
     ethr =  8.00E-03,  avg # of iterations =  2.0

     negative rho (up, down):  2.557E-03 0.000E+00

     total cpu time spent up to now is        0.8 secs

     total energy              =    -417.86045904 Ry
     estimated scf accuracy    <       0.11718666 Ry

     iteration #  3     ecut=    15.00 Ry     beta= 0.50
     Davidson diagonalization with overlap
     ethr =  4.19E-04,  avg # of iterations =  2.1

     negative rho (up, down):  3.514E-03 0.000E+00

     total cpu time spent up to now is        0.9 secs

     total energy              =    -417.87534745 Ry
     estimated scf accuracy    <       0.00528110 Ry

     iteration #  4     ecut=    15.00 Ry     beta= 0.50
     Davidson diagonalization with overlap
     ethr =  1.89E-05,  avg # of iterations =  2.2

     negative rho (up, down):  3.016E-03 0.000E+00

     total cpu time spent up to now is        1.0 secs

     total energy              =    -417.87630577 Ry
     estimated scf accuracy    <       0.00012676 Ry

     iteration #  5     ecut=    15.00 Ry     beta= 0.50
     Davidson diagonalization with overlap
     ethr =  4.53E-07,  avg # of iterations =  3.4

     negative rho (up, down):  2.981E-03 0.000E+00

     total cpu time spent up to now is        1.1 secs

     total energy              =    -417.87634064 Ry
     estimated scf accuracy    <       0.00001988 Ry

     iteration #  6     ecut=    15.00 Ry     beta= 0.50
     Davidson diagonalization with overlap
     ethr =  7.10E-08,  avg # of iterations =  2.2

     negative rho (up, down):  3.003E-03 0.000E+00

     total cpu time spent up to now is        1.1 secs

     total energy              =    -417.87634341 Ry
     estimated scf accuracy    <       0.00000031 Ry

     iteration #  7     ecut=    15.00 Ry     beta= 0.50
     Davidson diagonalization with overlap
     ethr =  1.10E-09,  avg # of iterations =  5.0

     negative rho (up, down):  2.990E-03 0.000E+00

     total cpu time spent up to now is        1.2 secs

     total energy              =    -417.87634346 Ry
     estimated scf accuracy    <       0.00000056 Ry

     iteration #  8     ecut=    15.00 Ry     beta= 0.50
     Davidson diagonalization with overlap
     ethr =  1.10E-09,  avg # of iterations =  2.0

     negative rho (up, down):  2.990E-03 0.000E+00

     total cpu time spent up to now is        1.3 secs

     End of self-consistent calculation

          k = 0.0000 0.0000 0.0000 (   307 PWs)   bands (ev):

   -24.2821 -24.2821 -23.1769 -23.1769 -23.1769 -22.8143 -22.8143 -22.8143
   -19.8440 -19.8440  -5.0800   6.5812   7.7127   7.7127

          k = 0.1768 0.1768-0.1768 (   302 PWs)   bands (ev):

   -23.6476 -23.6476 -23.3937 -22.6863 -22.6863 -22.1290 -22.1290 -22.0358
   -20.6122 -20.6122  -4.3670   2.7418   6.9109   6.9109

          k =-0.3536-0.3536 0.3536 (   302 PWs)   bands (ev):

   -24.7731 -24.7731 -23.2360 -23.2360 -21.8676 -21.0604 -21.0604 -21.0033
   -20.3168 -20.3168  -3.1015   0.0449   6.4225   6.4225

          k = 0.3536 0.0000 0.0000 (   303 PWs)   bands (ev):

   -23.9242 -23.3606 -23.3165 -23.3165 -22.5055 -22.3587 -22.0943 -22.0633
   -20.8127 -20.8127  -4.1072   2.5972   5.8277   5.8277

          k =-0.1768-0.5303 0.5303 (   298 PWs)   bands (ev):

   -23.1948 -23.1233 -22.8554 -22.6973 -22.2093 -21.9343 -21.6102 -21.4231
   -20.6914 -20.3160  -2.6921   0.1185   4.1242   5.4791

          k = 0.0000-0.3536 0.3536 (   295 PWs)   bands (ev):

   -23.4303 -23.2005 -22.5783 -22.1589 -21.9659 -21.9537 -21.1938 -20.6933
   -20.5241 -20.1545  -3.2760   0.9328   4.0068   6.3289

          k =-0.7071 0.0000 0.0000 (   302 PWs)   bands (ev):

   -23.1871 -23.1871 -22.8686 -22.8686 -22.6070 -22.6070 -22.0409 -22.0409
   -20.9037 -20.9037  -1.3563  -1.3563   4.8419   4.8419

          k =-0.7071 0.3536 0.0000 (   308 PWs)   bands (ev):

   -23.7472 -23.7472 -23.2116 -23.2116 -22.9087 -22.9087 -22.3822 -22.3822
   -21.2021 -21.2021  -1.2759  -1.2759   4.0028   4.0028

     highest occupied level (ev):     7.7127

!    total energy              =    -417.87634353 Ry
     estimated scf accuracy    <          5.0E-09 Ry

     The total energy is the sum of the following terms:
     one-electron contribution =    -256.71743112 Ry
     hartree contribution      =     147.57315606 Ry
     xc contribution           =    -111.23759342 Ry
     ewald contribution        =    -197.49447506 Ry

     convergence has been achieved in   8 iterations

     negative rho (up, down):  2.990E-03 0.000E+00

     Forces acting on atoms (cartesian axes, Ry/au):

     atom    1 type  1   force =     0.00000000    0.00000000    0.00000000
     atom    2 type  1   force =    -0.00000000   -0.00000000   -0.00000000

     Total force =     0.000000     Total SCF correction =     0.000000


     Computing stress (Cartesian axis) and pressure


     negative rho (up, down):  2.990E-03 0.000E+00
          total   stress  (Ry/bohr**3)                   (kbar)     P=   -14731.91
  -0.10014548   0.00000000   0.00000000       -14731.91        0.00        0.00
  -0.00000000  -0.10014548   0.00000000           -0.00   -14731.91        0.00
   0.00000000   0.00000000  -0.10014548            0.00        0.00   -14731.91

     Message from routine punch:
     Nothing written, as per user request (disk_io='none')

     init_run     :      0.48s CPU      0.48s WALL (       1 calls)
     electrons    :      0.60s CPU      0.67s WALL (       1 calls)
     forces       :      0.02s CPU      0.02s WALL (       1 calls)
     stress       :      0.12s CPU      0.12s WALL (       1 calls)

     Called by init_run:
     wfcinit      :      0.17s CPU      0.17s WALL (       1 calls)
     potinit      :      0.01s CPU      0.01s WALL (       1 calls)
     hinit0       :      0.28s CPU      0.28s WALL (       1 calls)

     Called by electrons:
     c_bands      :      0.39s CPU      0.44s WALL (       8 calls)
     sum_band     :      0.13s CPU      0.14s WALL (       8 calls)
     v_of_rho     :      0.01s CPU      0.01s WALL (       9 calls)
     newd         :      0.09s CPU      0.09s WALL (       9 calls)
     mix_rho      :      0.00s CPU      0.00s WALL (       8 calls)

     Called by c_bands:
     init_us_2    :      0.02s CPU      0.02s WALL (     152 calls)
     cegterg      :      0.34s CPU      0.39s WALL (      64 calls)

     Called by *egterg:
     cdiaghg      :      0.05s CPU      0.06s WALL (     232 calls)
     h_psi        :      0.39s CPU      0.43s WALL (     240 calls)
     s_psi        :      0.01s CPU      0.01s WALL (     240 calls)
     g_psi        :      0.00s CPU      0.00s WALL (     168 calls)

     Called by h_psi:
     h_psi:calbec :      0.01s CPU      0.01s WALL (     240 calls)
     vloc_psi     :      0.37s CPU      0.40s WALL (     240 calls)
     add_vuspsi   :      0.01s CPU      0.01s WALL (     240 calls)

     General routines
     calbec       :      0.02s CPU      0.02s WALL (     440 calls)
     fft          :      0.15s CPU      0.15s WALL (      44 calls)
     ffts         :      0.00s CPU      0.00s WALL (       8 calls)
     fftw         :      0.34s CPU      0.36s WALL (    6408 calls)

     Parallel routines

     PWSCF        :      1.36s CPU      1.44s WALL


   This run was terminated on:  23:57:16   7Oct2025            

=------------------------------------------------------------------------------=
   JOB DONE.
=------------------------------------------------------------------------------=
