Header of the LAMMPS data file 

4 atoms 
1 atom types

0.0 4.14  xlo xhi
0.0 4.14  ylo yhi
0.0 4.14  zlo zhi

Masses 

1  26.9815385

Atoms # atomic 

1 1 0.00000 0.00000 0.00000 
2 1 0.00000 2.07000 2.07000 
3 1 2.07000 0.00000 2.07000 
4 1 2.07000 2.07000 0.00000 
