
     Program PWSCF v.7.4.1 starts on 21Oct2025 at  1:39:43 

     This program is part of the open-source Quantum ESPRESSO suite
     for quantum simulation of materials; please cite
         "P. Giannozzi et al., J. Phys.:Condens. Matter 21 395502 (2009);
         "P. Giannozzi et al., J. Phys.:Condens. Matter 29 465901 (2017);
         "P. Giannozzi et al., J. Chem. Phys. 152 154105 (2020);
          URL http://www.quantum-espresso.org", 
     in publications or presentations arising from this work. More details at
     http://www.quantum-espresso.org/quote

     Parallel version (MPI), running on     2 processors

     MPI processes distributed on     1 nodes
     300 MiB available memory on the printing compute node when the environment starts

     Waiting for input...
     Reading input from standard input
Warning: card &CELL ignored
Warning: card / ignored

     Current dimensions of program PWSCF are:
     Max number of different atomic species (ntypx) = 10
     Max number of k-points (npk) =  40000
     Max angular momentum in pseudopotentials (lmaxx) =  4
     file O.pz-rrkjus.UPF: wavefunction(s)  2S renormalized
     Message from routine setup:
     using ibrav=0 with symmetry is DISCOURAGED, use correct ibrav instead

     R & G space division:  proc/nbgrp/npool/nimage =       2
     Subspace diagonalization in iterative solution of the eigenvalue problem:
     a serial algorithm will be used


     Parallelization info
     --------------------
     sticks:   dense  smooth     PW     G-vecs:    dense   smooth      PW
     Min         542     272     80                13264     4657     774
     Max         543     273     81                13265     4658     777
     Sum        1085     545    161                26529     9315    1551

     Using Slab Decomposition



     bravais-lattice index     =            0
     lattice parameter (alat)  =       7.4959  a.u.
     unit-cell volume          =     421.1858 (a.u.)^3
     number of atoms/cell      =            5
     number of atomic types    =            3
     number of electrons       =        44.00
     number of Kohn-Sham states=           22
     kinetic-energy cutoff     =      30.0000  Ry
     charge density cutoff     =     240.0000  Ry
     scf convergence threshold =      1.0E-07
     mixing beta               =       0.7000
     number of iterations used =            8  plain     mixing
     Exchange-correlation= SLA  PZ   NOGX NOGC
                           (   1   1   0   0   0   0   0)

     celldm(1)=   7.495914  celldm(2)=   0.000000  celldm(3)=   0.000000
     celldm(4)=   0.000000  celldm(5)=   0.000000  celldm(6)=   0.000000

     crystal axes: (cart. coord. in units of alat)
               a(1) = (   1.000000   0.000000   0.000000 )  
               a(2) = (   0.000000   1.000000   0.000000 )  
               a(3) = (   0.000000   0.000000   1.000000 )  

     reciprocal axes: (cart. coord. in units 2 pi/alat)
               b(1) = (  1.000000  0.000000  0.000000 )  
               b(2) = (  0.000000  1.000000  0.000000 )  
               b(3) = (  0.000000  0.000000  1.000000 )  


     PseudoPot. # 1 for O  read from file:
     /home/bond/Software/QE/qe-7.4.1/pseudo/O.pz-rrkjus.UPF
     MD5 check sum: 24fb942a68ef5d262e498166c462ef4a
     Pseudo is Ultrasoft, Zval =  6.0
     Generated by new atomic code, or converted to UPF format
     Using radial grid of 1269 points,  4 beta functions with: 
                l(1) =   0
                l(2) =   0
                l(3) =   1
                l(4) =   1
     Q(r) pseudized with 0 coefficients 


     PseudoPot. # 2 for Pb read from file:
     /home/bond/Software/QE/qe-7.4.1/pseudo/Pb.pz-d-van.UPF
     MD5 check sum: 4e1e5920686a026ae26139ac417581ff
     Pseudo is Ultrasoft, Zval = 14.0
     Generated by new atomic code, or converted to UPF format
     Using radial grid of  899 points,  6 beta functions with: 
                l(1) =   0
                l(2) =   0
                l(3) =   1
                l(4) =   1
                l(5) =   2
                l(6) =   2
     Q(r) pseudized with  8 coefficients,  rinner =    1.000   1.000   1.000
                                                       1.000   1.000

     PseudoPot. # 3 for Ti read from file:
     /home/bond/Software/QE/qe-7.4.1/pseudo/Ti.pz-sp-van_ak.UPF
     MD5 check sum: 545d0e6e05332b8871a8093f427cb0ca
     Pseudo is Ultrasoft, Zval = 12.0
     Generated by new atomic code, or converted to UPF format
     Using radial grid of  851 points,  6 beta functions with: 
                l(1) =   0
                l(2) =   0
                l(3) =   1
                l(4) =   1
                l(5) =   2
                l(6) =   2
     Q(r) pseudized with  8 coefficients,  rinner =    1.000   1.000   1.000
                                                       1.000   1.000

     atomic species   valence    mass     pseudopotential
     O                 6.00    15.99900     O ( 1.00)
     Pb               14.00   207.20000     Pb( 1.00)
     Ti               12.00    47.86700     Ti( 1.00)

     48 Sym. Ops., with inversion, found



   Cartesian axes

     site n.     atom                  positions (alat units)
         1        Pb     tau(   1) = (   0.0000000   0.0000000   0.0000000  )
         2        Ti     tau(   2) = (   0.4999992   0.4999992   0.4999992  )
         3        O      tau(   3) = (   0.0000000   0.4999992   0.4999992  )
         4        O      tau(   4) = (   0.4999992   0.0000000   0.4999992  )
         5        O      tau(   5) = (   0.4999992   0.4999992   0.0000000  )

     number of k points=     4
                       cart. coord. in units 2pi/alat
        k(    1) = (   0.1250000   0.1250000   0.1250000), wk =   0.2500000
        k(    2) = (   0.1250000   0.1250000   0.3750000), wk =   0.7500000
        k(    3) = (   0.1250000   0.3750000   0.3750000), wk =   0.7500000
        k(    4) = (   0.3750000   0.3750000   0.3750000), wk =   0.2500000

     Dense  grid:    26529 G-vectors     FFT dimensions: (  40,  40,  40)

     Smooth grid:     9315 G-vectors     FFT dimensions: (  27,  27,  27)

     Estimated max dynamical RAM per process >      54.38 MB

     Estimated total dynamical RAM >     108.77 MB

     Initial potential from superposition of free atoms

     starting charge      42.9982, renormalised to      44.0000
     Starting wfcs are   31 randomized atomic wfcs

     total cpu time spent up to now is        1.6 secs

     Self-consistent Calculation

     iteration #  1     ecut=    30.00 Ry     beta= 0.70
     Davidson diagonalization with overlap
     ethr =  1.00E-02,  avg # of iterations =  2.0

     total cpu time spent up to now is        2.0 secs

     total energy              =    -332.57274843 Ry
     estimated scf accuracy    <       1.13463464 Ry

     iteration #  2     ecut=    30.00 Ry     beta= 0.70
     Davidson diagonalization with overlap
     ethr =  2.58E-03,  avg # of iterations =  7.8

     total cpu time spent up to now is        2.5 secs

     total energy              =    -331.87313887 Ry
     estimated scf accuracy    <       7.60720364 Ry

     iteration #  3     ecut=    30.00 Ry     beta= 0.70
     Davidson diagonalization with overlap
     ethr =  2.58E-03,  avg # of iterations =  6.8

     total cpu time spent up to now is        3.0 secs

     total energy              =    -333.14472493 Ry
     estimated scf accuracy    <       0.34429818 Ry

     iteration #  4     ecut=    30.00 Ry     beta= 0.70
     Davidson diagonalization with overlap
     ethr =  7.82E-04,  avg # of iterations =  2.5

     total cpu time spent up to now is        3.4 secs

     total energy              =    -333.13519931 Ry
     estimated scf accuracy    <       0.11636849 Ry

     iteration #  5     ecut=    30.00 Ry     beta= 0.70
     Davidson diagonalization with overlap
     ethr =  2.64E-04,  avg # of iterations =  4.8

     total cpu time spent up to now is        3.9 secs

     total energy              =    -333.17222861 Ry
     estimated scf accuracy    <       0.00620357 Ry

     iteration #  6     ecut=    30.00 Ry     beta= 0.70
     Davidson diagonalization with overlap
     ethr =  1.41E-05,  avg # of iterations =  3.8

     total cpu time spent up to now is        4.3 secs

     total energy              =    -333.17190006 Ry
     estimated scf accuracy    <       0.00407712 Ry

     iteration #  7     ecut=    30.00 Ry     beta= 0.70
     Davidson diagonalization with overlap
     ethr =  9.27E-06,  avg # of iterations =  4.2

     total cpu time spent up to now is        4.8 secs

     total energy              =    -333.17249262 Ry
     estimated scf accuracy    <       0.00016675 Ry

     iteration #  8     ecut=    30.00 Ry     beta= 0.70
     Davidson diagonalization with overlap
     ethr =  3.79E-07,  avg # of iterations =  4.8

     total cpu time spent up to now is        5.2 secs

     total energy              =    -333.17258453 Ry
     estimated scf accuracy    <       0.00000359 Ry

     iteration #  9     ecut=    30.00 Ry     beta= 0.70
     Davidson diagonalization with overlap
     ethr =  8.16E-09,  avg # of iterations =  7.2

     total cpu time spent up to now is        5.8 secs

     total energy              =    -333.17258630 Ry
     estimated scf accuracy    <       0.00004690 Ry

     iteration # 10     ecut=    30.00 Ry     beta= 0.70
     Davidson diagonalization with overlap
     ethr =  8.16E-09,  avg # of iterations =  5.0

     total cpu time spent up to now is        6.2 secs

     total energy              =    -333.17258432 Ry
     estimated scf accuracy    <       0.00001069 Ry

     iteration # 11     ecut=    30.00 Ry     beta= 0.70
     Davidson diagonalization with overlap
     ethr =  8.16E-09,  avg # of iterations =  5.5

     total cpu time spent up to now is        6.7 secs

     total energy              =    -333.17258680 Ry
     estimated scf accuracy    <       0.00000068 Ry

     iteration # 12     ecut=    30.00 Ry     beta= 0.70
     Davidson diagonalization with overlap
     ethr =  1.54E-09,  avg # of iterations =  2.0

     total cpu time spent up to now is        7.1 secs

     total energy              =    -333.17258674 Ry
     estimated scf accuracy    <       0.00000022 Ry

     iteration # 13     ecut=    30.00 Ry     beta= 0.70
     Davidson diagonalization with overlap
     ethr =  4.95E-10,  avg # of iterations =  5.2

     total cpu time spent up to now is        7.5 secs

     total energy              =    -333.17258685 Ry
     estimated scf accuracy    <       0.00000020 Ry

     iteration # 14     ecut=    30.00 Ry     beta= 0.70
     Davidson diagonalization with overlap
     ethr =  4.51E-10,  avg # of iterations =  1.2

     total cpu time spent up to now is        7.9 secs

     End of self-consistent calculation

          k = 0.1250 0.1250 0.1250 (  1180 PWs)   bands (ev):

   -46.0441 -22.5932 -22.5932 -22.5928  -7.1054  -6.1651  -6.1651  -5.2109
    -5.2109  -5.1999  -5.0305  -5.0305   3.5561   6.4312   6.4312   6.9942
     8.1956   8.1956   8.9335   8.9335   8.9366   9.0025

          k = 0.1250 0.1250 0.3750 (  1171 PWs)   bands (ev):

   -46.0432 -22.6334 -22.5913 -22.5910  -6.7506  -6.0538  -6.0425  -5.2578
    -5.2064  -5.1921  -5.1213  -5.0144   2.9450   5.9461   6.5360   6.9103
     7.4549   7.8234   8.3478   8.9737   9.0821   9.6245

          k = 0.1250 0.3750 0.3750 (  1164 PWs)   bands (ev):

   -46.0423 -22.6314 -22.6312 -22.5895  -6.5737  -5.9770  -5.9214  -5.2369
    -5.2010  -5.1446  -5.0696  -4.9267   2.6725   5.8793   6.0082   6.3803
     6.6696   7.6213   8.4038   8.5243   8.8742   9.6821

          k = 0.3750 0.3750 0.3750 (  1157 PWs)   bands (ev):

   -46.0414 -22.6298 -22.6293 -22.6293  -6.2580  -6.1131  -6.1131  -5.1702
    -5.1702  -4.8899  -4.8258  -4.8258   3.2558   5.2662   5.2662   5.7424
     6.1661   6.1661   6.9010   9.6355   9.6355   9.7173

     highest occupied level (ev):     9.7173

!    total energy              =    -333.17258677 Ry
     estimated scf accuracy    <       0.00000009 Ry

     The total energy is the sum of the following terms:
     one-electron contribution =     -85.64412598 Ry
     hartree contribution      =      68.86274038 Ry
     xc contribution           =     -49.38999027 Ry
     ewald contribution        =    -267.00121089 Ry

     convergence has been achieved in  14 iterations

     Forces acting on atoms (cartesian axes, Ry/au):

     atom    1 type  2   force =     0.00000000    0.00000000    0.00000000
     atom    2 type  3   force =     0.00000000    0.00000000    0.00000000
     atom    3 type  1   force =     0.00000000    0.00000000    0.00000000
     atom    4 type  1   force =     0.00000000    0.00000000    0.00000000
     atom    5 type  1   force =     0.00000000    0.00000000    0.00000000

     Total force =     0.000000     Total SCF correction =     0.000000


     Computing stress (Cartesian axis) and pressure

          total   stress  (Ry/bohr**3)                   (kbar)     P=     -140.17
  -0.00095287   0.00000000   0.00000000         -140.17        0.00        0.00
   0.00000000  -0.00095287   0.00000000            0.00     -140.17        0.00
   0.00000000   0.00000000  -0.00095287            0.00        0.00     -140.17

     Message from routine punch:
     Nothing written, as per user request (disk_io='none')

     init_run     :      1.05s CPU      1.11s WALL (       1 calls)
     electrons    :      5.49s CPU      6.38s WALL (       1 calls)
     forces       :      0.13s CPU      0.15s WALL (       1 calls)
     stress       :      1.23s CPU      1.32s WALL (       1 calls)

     Called by init_run:
     wfcinit      :      0.09s CPU      0.09s WALL (       1 calls)
     potinit      :      0.09s CPU      0.10s WALL (       1 calls)
     hinit0       :      0.67s CPU      0.67s WALL (       1 calls)

     Called by electrons:
     c_bands      :      2.38s CPU      2.53s WALL (      14 calls)
     sum_band     :      1.75s CPU      2.14s WALL (      14 calls)
     v_of_rho     :      0.04s CPU      0.04s WALL (      15 calls)
     newd         :      1.37s CPU      1.76s WALL (      15 calls)
     mix_rho      :      0.03s CPU      0.03s WALL (      14 calls)

     Called by c_bands:
     init_us_2    :      0.05s CPU      0.06s WALL (     124 calls)
     cegterg      :      2.27s CPU      2.41s WALL (      56 calls)

     Called by *egterg:
     cdiaghg      :      0.20s CPU      0.21s WALL (     307 calls)
     h_psi        :      1.85s CPU      1.96s WALL (     311 calls)
     s_psi        :      0.05s CPU      0.05s WALL (     311 calls)
     g_psi        :      0.01s CPU      0.01s WALL (     251 calls)

     Called by h_psi:
     h_psi:calbec :      0.09s CPU      0.10s WALL (     311 calls)
     vloc_psi     :      1.69s CPU      1.80s WALL (     311 calls)
     add_vuspsi   :      0.06s CPU      0.06s WALL (     311 calls)

     General routines
     calbec       :      0.13s CPU      0.14s WALL (     435 calls)
     fft          :      0.27s CPU      0.28s WALL (      93 calls)
     ffts         :      0.06s CPU      0.06s WALL (      29 calls)
     fftw         :      1.69s CPU      1.80s WALL (    8896 calls)
     interpolate  :      0.07s CPU      0.07s WALL (      15 calls)

     Parallel routines

     PWSCF        :      8.33s CPU      9.42s WALL


   This run was terminated on:   1:39:52  21Oct2025            

=------------------------------------------------------------------------------=
   JOB DONE.
=------------------------------------------------------------------------------=
