
     Program PWSCF v.7.4.1 starts on  8Oct2025 at  1:42:17 

     This program is part of the open-source Quantum ESPRESSO suite
     for quantum simulation of materials; please cite
         "P. Giannozzi et al., J. Phys.:Condens. Matter 21 395502 (2009);
         "P. Giannozzi et al., J. Phys.:Condens. Matter 29 465901 (2017);
         "P. Giannozzi et al., J. Chem. Phys. 152 154105 (2020);
          URL http://www.quantum-espresso.org", 
     in publications or presentations arising from this work. More details at
     http://www.quantum-espresso.org/quote

     Parallel version (MPI), running on     1 processors

     MPI processes distributed on     1 nodes
     545 MiB available memory on the printing compute node when the environment starts

     Waiting for input...
     Reading input from standard input
Warning: card &CELL ignored
Warning: card / ignored

     Current dimensions of program PWSCF are:
     Max number of different atomic species (ntypx) = 10
     Max number of k-points (npk) =  40000
     Max angular momentum in pseudopotentials (lmaxx) =  4
     Message from routine setup:
     using ibrav=0 with symmetry is DISCOURAGED, use correct ibrav instead

     Subspace diagonalization in iterative solution of the eigenvalue problem:
     a serial algorithm will be used


     G-vector sticks info
     --------------------
     sticks:   dense  smooth     PW     G-vecs:    dense   smooth      PW
     Sum         475     475    151                 6855     6855    1243

     Using Slab Decomposition



     bravais-lattice index     =            0
     lattice parameter (alat)  =       7.5604  a.u.
     unit-cell volume          =     305.5804 (a.u.)^3
     number of atoms/cell      =            2
     number of atomic types    =            1
     number of electrons       =        28.00
     number of Kohn-Sham states=           14
     kinetic-energy cutoff     =      30.0000  Ry
     charge density cutoff     =     120.0000  Ry
     scf convergence threshold =      1.0E-07
     mixing beta               =       0.5000
     number of iterations used =            8  plain     mixing
     Exchange-correlation=  SLA  PZ   NOGX NOGC
                           (   1   1   0   0   0   0   0)

     celldm(1)=   7.560435  celldm(2)=   0.000000  celldm(3)=   0.000000
     celldm(4)=   0.000000  celldm(5)=   0.000000  celldm(6)=   0.000000

     crystal axes: (cart. coord. in units of alat)
               a(1) = (   0.000000   0.707107   0.707107 )  
               a(2) = (   0.707107   0.000000   0.707107 )  
               a(3) = (   0.707107   0.707107   0.000000 )  

     reciprocal axes: (cart. coord. in units 2 pi/alat)
               b(1) = ( -0.707107  0.707107  0.707107 )  
               b(2) = (  0.707107 -0.707107  0.707107 )  
               b(3) = (  0.707107  0.707107 -0.707107 )  


     PseudoPot. # 1 for Ge read from file:
     /home/bond/Software/QE/qe-7.4.1/pseudo/ge_lda_v1.4.uspp.F.UPF
     MD5 check sum: bf9d52b59cc8a669818bb2b52e0c2ba0
     Pseudo is Ultrasoft + core correction, Zval = 14.0
     Generated by new atomic code, or converted to UPF format
     Using radial grid of  873 points,  6 beta functions with: 
                l(1) =   0
                l(2) =   0
                l(3) =   1
                l(4) =   1
                l(5) =   2
                l(6) =   2
     Q(r) pseudized with  8 coefficients,  rinner =    1.400   1.400   1.400
                                                       1.400   1.400

     atomic species   valence    mass     pseudopotential
     Ge               14.00    72.63000     Ge( 1.00)

      4 Sym. Ops. (no inversion) found



   Cartesian axes

     site n.     atom                  positions (alat units)
         1        Ge     tau(   1) = (   0.0000000   0.0000000   0.0707107  )
         2        Ge     tau(   2) = (   0.3535534   0.3535534   0.3535534  )

     number of k points=    95
                       cart. coord. in units 2pi/alat
        k(    1) = (   0.0000000   0.0000000   0.0000000), wk =   0.0039062
        k(    2) = (   0.0883883   0.0883883  -0.0883883), wk =   0.0156250
        k(    3) = (   0.1767767   0.1767767  -0.1767767), wk =   0.0156250
        k(    4) = (   0.2651650   0.2651650  -0.2651650), wk =   0.0156250
        k(    5) = (  -0.3535534  -0.3535534   0.3535534), wk =   0.0078125
        k(    6) = (   0.1767767   0.0000000   0.0000000), wk =   0.0156250
        k(    7) = (   0.2651650   0.0883883  -0.0883883), wk =   0.0312500
        k(    8) = (   0.3535534   0.1767767  -0.1767767), wk =   0.0312500
        k(    9) = (  -0.2651650  -0.4419417   0.4419417), wk =   0.0312500
        k(   10) = (  -0.1767767  -0.3535534   0.3535534), wk =   0.0312500
        k(   11) = (  -0.0883883  -0.2651650   0.2651650), wk =   0.0312500
        k(   12) = (   0.0000000  -0.1767767   0.1767767), wk =   0.0312500
        k(   13) = (   0.3535534   0.0000000   0.0000000), wk =   0.0156250
        k(   14) = (   0.4419417   0.0883883  -0.0883883), wk =   0.0312500
        k(   15) = (  -0.1767767  -0.5303301   0.5303301), wk =   0.0312500
        k(   16) = (  -0.0883883  -0.4419417   0.4419417), wk =   0.0312500
        k(   17) = (   0.0000000  -0.3535534   0.3535534), wk =   0.0312500
        k(   18) = (   0.5303301   0.0000000   0.0000000), wk =   0.0156250
        k(   19) = (  -0.0883883  -0.6187184   0.6187184), wk =   0.0312500
        k(   20) = (   0.0000000  -0.5303301   0.5303301), wk =   0.0312500
        k(   21) = (  -0.7071068   0.0000000   0.0000000), wk =   0.0078125
        k(   22) = (   0.3535534   0.1767767   0.0000000), wk =   0.0156250
        k(   23) = (  -0.2651650  -0.4419417   0.6187184), wk =   0.0312500
        k(   24) = (  -0.1767767  -0.3535534   0.5303301), wk =   0.0312500
        k(   25) = (  -0.1767767  -0.5303301   0.7071068), wk =   0.0156250
        k(   26) = (  -0.0883883  -0.4419417   0.6187184), wk =   0.0312500
        k(   27) = (   0.0000000  -0.3535534   0.5303301), wk =   0.0312500
        k(   28) = (  -0.7071068   0.1767767   0.0000000), wk =   0.0156250
        k(   29) = (  -0.7071068   0.3535534   0.0000000), wk =   0.0156250
        k(   30) = (   0.0883883  -0.0883883  -0.0883883), wk =   0.0156250
        k(   31) = (   0.1767767  -0.1767767  -0.1767767), wk =   0.0156250
        k(   32) = (   0.2651650  -0.2651650  -0.2651650), wk =   0.0156250
        k(   33) = (  -0.3535534   0.3535534   0.3535534), wk =   0.0078125
        k(   34) = (   0.0000000   0.0000000   0.1767767), wk =   0.0078125
        k(   35) = (   0.0883883  -0.2651650  -0.0883883), wk =   0.0312500
        k(   36) = (  -0.0883883  -0.0883883   0.2651650), wk =   0.0156250
        k(   37) = (   0.0883883  -0.0883883  -0.2651650), wk =   0.0156250
        k(   38) = (   0.1767767  -0.3535534  -0.1767767), wk =   0.0312500
        k(   39) = (  -0.1767767  -0.1767767   0.3535534), wk =   0.0156250
        k(   40) = (   0.1767767  -0.1767767  -0.3535534), wk =   0.0156250
        k(   41) = (  -0.4419417   0.2651650   0.4419417), wk =   0.0312500
        k(   42) = (   0.4419417   0.4419417  -0.2651650), wk =   0.0156250
        k(   43) = (  -0.4419417   0.4419417   0.2651650), wk =   0.0156250
        k(   44) = (  -0.3535534   0.1767767   0.3535534), wk =   0.0312500
        k(   45) = (   0.3535534   0.3535534  -0.1767767), wk =   0.0156250
        k(   46) = (  -0.3535534   0.3535534   0.1767767), wk =   0.0156250
        k(   47) = (  -0.2651650   0.0883883   0.2651650), wk =   0.0312500
        k(   48) = (   0.2651650   0.2651650  -0.0883883), wk =   0.0156250
        k(   49) = (  -0.2651650   0.2651650   0.0883883), wk =   0.0156250
        k(   50) = (   0.1767767   0.1767767   0.0000000), wk =   0.0078125
        k(   51) = (  -0.1767767   0.1767767   0.0000000), wk =   0.0078125
        k(   52) = (   0.0000000   0.0000000   0.3535534), wk =   0.0078125
        k(   53) = (   0.0883883  -0.4419417  -0.0883883), wk =   0.0312500
        k(   54) = (  -0.0883883  -0.0883883   0.4419417), wk =   0.0156250
        k(   55) = (   0.0883883  -0.0883883  -0.4419417), wk =   0.0156250
        k(   56) = (  -0.5303301   0.1767767   0.5303301), wk =   0.0312500
        k(   57) = (   0.5303301   0.5303301  -0.1767767), wk =   0.0156250
        k(   58) = (  -0.5303301   0.5303301   0.1767767), wk =   0.0156250
        k(   59) = (  -0.4419417   0.0883883   0.4419417), wk =   0.0312500
        k(   60) = (   0.4419417   0.4419417  -0.0883883), wk =   0.0156250
        k(   61) = (  -0.4419417   0.4419417   0.0883883), wk =   0.0156250
        k(   62) = (   0.3535534   0.3535534   0.0000000), wk =   0.0078125
        k(   63) = (  -0.3535534   0.3535534   0.0000000), wk =   0.0078125
        k(   64) = (   0.0000000   0.0000000   0.5303301), wk =   0.0078125
        k(   65) = (  -0.6187184   0.0883883   0.6187184), wk =   0.0312500
        k(   66) = (   0.6187184   0.6187184  -0.0883883), wk =   0.0156250
        k(   67) = (  -0.6187184   0.6187184   0.0883883), wk =   0.0156250
        k(   68) = (   0.5303301   0.5303301   0.0000000), wk =   0.0078125
        k(   69) = (  -0.5303301   0.5303301   0.0000000), wk =   0.0078125
        k(   70) = (   0.0000000   0.0000000  -0.7071068), wk =   0.0039062
        k(   71) = (   0.1767767  -0.3535534   0.0000000), wk =   0.0156250
        k(   72) = (   0.0000000  -0.1767767   0.3535534), wk =   0.0312500
        k(   73) = (  -0.3535534   0.0000000   0.1767767), wk =   0.0312500
        k(   74) = (  -0.4419417   0.2651650   0.6187184), wk =   0.0312500
        k(   75) = (   0.6187184   0.4419417  -0.2651650), wk =   0.0312500
        k(   76) = (  -0.6187184   0.4419417   0.2651650), wk =   0.0312500
        k(   77) = (   0.2651650   0.6187184  -0.4419417), wk =   0.0312500
        k(   78) = (   0.2651650  -0.6187184   0.4419417), wk =   0.0312500
        k(   79) = (  -0.3535534   0.1767767   0.5303301), wk =   0.0312500
        k(   80) = (   0.1767767   0.5303301  -0.3535534), wk =   0.0156250
        k(   81) = (   0.1767767  -0.5303301   0.3535534), wk =   0.0156250
        k(   82) = (  -0.5303301   0.1767767   0.7071068), wk =   0.0156250
        k(   83) = (   0.7071068   0.5303301  -0.1767767), wk =   0.0312500
        k(   84) = (   0.1767767   0.7071068  -0.5303301), wk =   0.0312500
        k(   85) = (  -0.4419417   0.0883883   0.6187184), wk =   0.0312500
        k(   86) = (   0.6187184   0.4419417  -0.0883883), wk =   0.0312500
        k(   87) = (  -0.6187184   0.4419417   0.0883883), wk =   0.0312500
        k(   88) = (   0.0883883   0.6187184  -0.4419417), wk =   0.0312500
        k(   89) = (   0.0883883  -0.6187184   0.4419417), wk =   0.0312500
        k(   90) = (   0.5303301   0.3535534   0.0000000), wk =   0.0156250
        k(   91) = (  -0.5303301   0.3535534  -0.0000000), wk =   0.0156250
        k(   92) = (   0.0000000   0.5303301  -0.3535534), wk =   0.0312500
        k(   93) = (  -0.0000000  -0.1767767  -0.7071068), wk =   0.0156250
        k(   94) = (   0.7071068   0.0000000   0.1767767), wk =   0.0156250
        k(   95) = (   0.7071068   0.0000000   0.3535534), wk =   0.0078125

     Dense  grid:     6855 G-vectors     FFT dimensions: (  27,  27,  27)

     Estimated max dynamical RAM per process >      43.96 MB

     Check: negative core charge=   -0.000124

     Initial potential from superposition of free atoms

     starting charge      27.9986, renormalised to      28.0000
     Starting wfcs are   18 randomized atomic wfcs

     total cpu time spent up to now is        1.6 secs

     Self-consistent Calculation

     iteration #  1     ecut=    30.00 Ry     beta= 0.50
     Davidson diagonalization with overlap
     ethr =  1.00E-02,  avg # of iterations =  1.9

     Threshold (ethr) on eigenvalues was too large:
     Diagonalizing with lowered threshold

     Davidson diagonalization with overlap
     ethr =  1.24E-04,  avg # of iterations =  2.0

     total cpu time spent up to now is        6.1 secs

     total energy              =    -426.10753150 Ry
     estimated scf accuracy    <       0.03625217 Ry

     iteration #  2     ecut=    30.00 Ry     beta= 0.50
     Davidson diagonalization with overlap
     ethr =  1.29E-04,  avg # of iterations =  1.0

     total cpu time spent up to now is        8.2 secs

     total energy              =    -426.10644015 Ry
     estimated scf accuracy    <       0.00601531 Ry

     iteration #  3     ecut=    30.00 Ry     beta= 0.50
     Davidson diagonalization with overlap
     ethr =  2.15E-05,  avg # of iterations =  2.1

     total cpu time spent up to now is       10.5 secs

     total energy              =    -426.10696966 Ry
     estimated scf accuracy    <       0.00007872 Ry

     iteration #  4     ecut=    30.00 Ry     beta= 0.50
     Davidson diagonalization with overlap
     ethr =  2.81E-07,  avg # of iterations =  3.9

     total cpu time spent up to now is       13.5 secs

     total energy              =    -426.10699528 Ry
     estimated scf accuracy    <       0.00000793 Ry

     iteration #  5     ecut=    30.00 Ry     beta= 0.50
     Davidson diagonalization with overlap
     ethr =  2.83E-08,  avg # of iterations =  2.3

     total cpu time spent up to now is       16.0 secs

     total energy              =    -426.10699661 Ry
     estimated scf accuracy    <       0.00000020 Ry

     iteration #  6     ecut=    30.00 Ry     beta= 0.50
     Davidson diagonalization with overlap
     ethr =  7.22E-10,  avg # of iterations =  3.9

     total cpu time spent up to now is       19.4 secs

     End of self-consistent calculation

          k = 0.0000 0.0000 0.0000 (   869 PWs)   bands (ev):

   -16.9847 -16.9827 -16.9172 -16.8832 -16.8578 -16.7054 -16.6799 -16.6779
   -16.6499 -16.6473  -4.7549   6.8352   7.9452   8.3633

          k = 0.0884 0.0884-0.0884 (   869 PWs)   bands (ev):

   -17.0031 -16.9956 -16.9168 -16.8611 -16.8493 -16.7147 -16.7058 -16.6508
   -16.6428 -16.6358  -4.5570   5.0684   7.5699   8.6639

          k = 0.1768 0.1768-0.1768 (   854 PWs)   bands (ev):

   -17.0334 -17.0175 -16.9084 -16.8335 -16.8292 -16.7245 -16.7205 -16.6407
   -16.6259 -16.6008  -3.9726   2.7740   6.9218   7.9880

          k = 0.2652 0.2652-0.2652 (   848 PWs)   bands (ev):

   -17.0530 -17.0386 -16.8996 -16.8326 -16.8172 -16.7278 -16.7237 -16.6386
   -16.6083 -16.5748  -3.0625   0.7621   6.4656   7.5834

          k =-0.3536-0.3536 0.3536 (   862 PWs)   bands (ev):

   -17.0597 -17.0514 -16.8966 -16.8449 -16.8196 -16.7268 -16.7257 -16.6442
   -16.6008 -16.5727  -2.3389  -0.3383   6.3067   7.4503

          k = 0.1768 0.0000 0.0000 (   877 PWs)   bands (ev):

   -17.0064 -16.9997 -16.9159 -16.8599 -16.8456 -16.7283 -16.7070 -16.6520
   -16.6418 -16.6400  -4.5043   5.1878   7.3783   7.5714

          k = 0.2652 0.0884-0.0884 (   858 PWs)   bands (ev):

   -17.0299 -17.0214 -16.9161 -16.8321 -16.8199 -16.7457 -16.7187 -16.6403
   -16.6167 -16.6072  -4.0376   3.2109   6.6567   7.4009

          k = 0.3536 0.1768-0.1768 (   852 PWs)   bands (ev):

   -17.0507 -17.0421 -16.9071 -16.8204 -16.8120 -16.7452 -16.7242 -16.6439
   -16.6005 -16.5785  -3.2126   1.2552   6.0867   6.7764

          k =-0.2652-0.4419 0.4419 (   842 PWs)   bands (ev):

   -17.0614 -17.0436 -16.8916 -16.8332 -16.8086 -16.7276 -16.7239 -16.6482
   -16.5937 -16.5631  -2.2798  -0.1952   5.6794   6.5722

          k =-0.1768-0.3536 0.3536 (   849 PWs)   bands (ev):

   -17.0593 -17.0304 -16.8879 -16.8448 -16.8130 -16.7310 -16.7172 -16.6542
   -16.6063 -16.5703  -2.6183   0.3259   5.5100   6.8054

          k =-0.0884-0.2652 0.2652 (   850 PWs)   bands (ev):

   -17.0395 -17.0084 -16.8978 -16.8407 -16.8213 -16.7309 -16.7150 -16.6536
   -16.6249 -16.5927  -3.5759   2.1653   5.6620   7.3702

          k = 0.0000-0.1768 0.1768 (   847 PWs)   bands (ev):

   -17.0052 -16.9877 -16.9041 -16.8486 -16.8422 -16.7136 -16.7070 -16.6483
   -16.6425 -16.6237  -4.2646   4.3153   6.1545   8.0951

          k = 0.3536 0.0000 0.0000 (   849 PWs)   bands (ev):

   -17.0312 -17.0165 -16.9099 -16.8224 -16.7991 -16.7701 -16.7169 -16.6461
   -16.6091 -16.6077  -3.7615   3.0365   6.1974   6.3662

          k = 0.4419 0.0884-0.0884 (   845 PWs)   bands (ev):

   -17.0473 -17.0427 -16.9041 -16.8055 -16.7981 -16.7627 -16.7261 -16.6515
   -16.5903 -16.5794  -3.0373   1.4227   5.6393   6.0116

          k =-0.1768-0.5303 0.5303 (   845 PWs)   bands (ev):

   -17.0648 -17.0412 -16.8885 -16.8268 -16.7953 -16.7379 -16.7300 -16.6654
   -16.5881 -16.5606  -2.0544  -0.0140   4.7839   5.8679

          k =-0.0884-0.4419 0.4419 (   843 PWs)   bands (ev):

   -17.0629 -17.0247 -16.8728 -16.8448 -16.7954 -16.7412 -16.7159 -16.6794
   -16.5975 -16.5625  -1.9829  -0.0057   4.2000   6.1847

          k = 0.0000-0.3536 0.3536 (   847 PWs)   bands (ev):

   -17.0447 -17.0036 -16.8797 -16.8434 -16.8071 -16.7416 -16.7140 -16.6768
   -16.6162 -16.5864  -2.9333   1.5123   4.1764   6.8291

          k = 0.5303 0.0000 0.0000 (   842 PWs)   bands (ev):

   -17.0489 -17.0398 -16.8916 -16.8161 -16.7888 -16.7474 -16.7346 -16.6647
   -16.5826 -16.5802  -2.5570   0.9526   5.4428   5.5301

          k =-0.0884-0.6187 0.6187 (   843 PWs)   bands (ev):

   -17.0609 -17.0426 -16.8792 -16.8364 -16.7774 -16.7452 -16.7248 -16.6811
   -16.5798 -16.5612  -1.6035  -0.2887   4.8079   5.3923

          k = 0.0000-0.5303 0.5303 (   834 PWs)   bands (ev):

   -17.0615 -17.0232 -16.8572 -16.8515 -16.7689 -16.7540 -16.7030 -16.7001
   -16.5904 -16.5592  -1.5028  -0.2425   3.8422   5.6660

          k =-0.7071 0.0000 0.0000 (   846 PWs)   bands (ev):

   -17.0530 -17.0530 -16.8587 -16.8587 -16.7638 -16.7638 -16.7018 -16.7018
   -16.5704 -16.5704  -0.9525  -0.9525   5.2126   5.2126

          k = 0.3536 0.1768 0.0000 (   849 PWs)   bands (ev):

   -17.0524 -17.0369 -16.9161 -16.8166 -16.7845 -16.7757 -16.7217 -16.6378
   -16.6008 -16.5784  -3.4264   1.8285   5.4893   7.2976

          k =-0.2652-0.4419 0.6187 (   850 PWs)   bands (ev):

   -17.0722 -17.0316 -16.9080 -16.8105 -16.8076 -16.7500 -16.7261 -16.6447
   -16.6053 -16.5567  -2.4859   0.3853   4.6564   6.6647

          k =-0.1768-0.3536 0.5303 (   838 PWs)   bands (ev):

   -17.0681 -17.0116 -16.8869 -16.8343 -16.8038 -16.7332 -16.7198 -16.6554
   -16.6156 -16.5555  -1.8512  -0.3181   4.3427   6.2697

          k =-0.1768-0.5303 0.7071 (   856 PWs)   bands (ev):

   -17.0700 -17.0375 -16.9015 -16.8188 -16.7987 -16.7455 -16.7350 -16.6616
   -16.5953 -16.5598  -2.1755   0.2503   4.7312   5.7734

          k =-0.0884-0.4419 0.6187 (   844 PWs)   bands (ev):

   -17.0687 -17.0134 -16.8824 -16.8363 -16.7911 -16.7443 -16.7178 -16.6788
   -16.6056 -16.5548  -1.2838  -0.5969   4.0200   5.3770

          k = 0.0000-0.3536 0.5303 (   850 PWs)   bands (ev):

   -17.0509 -16.9912 -16.8627 -16.8578 -16.7932 -16.7606 -16.7014 -16.6968
   -16.6211 -16.5782  -2.0698   0.5314   3.7292   5.5330

          k =-0.7071 0.1768 0.0000 (   848 PWs)   bands (ev):

   -17.0637 -17.0208 -16.8654 -16.8560 -16.7703 -16.7602 -16.7038 -16.7022
   -16.5958 -16.5620  -1.2474  -0.5210   4.5154   4.8535

          k =-0.7071 0.3536 0.0000 (   848 PWs)   bands (ev):

   -17.0528 -16.9844 -16.8677 -16.8515 -16.7772 -16.7766 -16.6997 -16.6969
   -16.6217 -16.5747  -1.4795  -0.0418   3.8444   4.6031

          k = 0.0884-0.0884-0.0884 (   869 PWs)   bands (ev):

   -16.9859 -16.9846 -16.9098 -16.8783 -16.8530 -16.7100 -16.6861 -16.6792
   -16.6458 -16.6452  -4.5804   6.1380   6.6524   8.3696

          k = 0.1768-0.1768-0.1768 (   854 PWs)   bands (ev):

   -16.9897 -16.9772 -16.8985 -16.8702 -16.8356 -16.7222 -16.6939 -16.6741
   -16.6414 -16.6386  -4.0858   3.8764   6.2855   7.9382

          k = 0.2652-0.2652-0.2652 (   848 PWs)   bands (ev):

   -16.9911 -16.9696 -16.8942 -16.8652 -16.8204 -16.7378 -16.7036 -16.6661
   -16.6432 -16.6349  -3.4107   2.0632   5.9865   7.6233

          k =-0.3536 0.3536 0.3536 (   862 PWs)   bands (ev):

   -16.9978 -16.9690 -16.8941 -16.8670 -16.8129 -16.7486 -16.7121 -16.6707
   -16.6455 -16.6386  -3.0203   1.2845   5.8764   7.5163

          k = 0.0000 0.0000 0.1768 (   877 PWs)   bands (ev):

   -16.9869 -16.9861 -16.9106 -16.8752 -16.8644 -16.7018 -16.6978 -16.6766
   -16.6528 -16.6457  -4.5087   5.7921   6.3310   7.8175

          k = 0.0884-0.2652-0.0884 (   858 PWs)   bands (ev):

   -17.0083 -16.9890 -16.9068 -16.8522 -16.8243 -16.7413 -16.7073 -16.6560
   -16.6391 -16.6286  -4.1153   4.2627   5.8801   7.0171

          k =-0.0884-0.0884 0.2652 (   858 PWs)   bands (ev):

   -17.0109 -16.9846 -16.8991 -16.8596 -16.8468 -16.7235 -16.6971 -16.6537
   -16.6518 -16.6249  -4.0715   3.7137   6.1056   7.1827

          k = 0.0884-0.0884-0.2652 (   858 PWs)   bands (ev):

   -16.9904 -16.9786 -16.9000 -16.8687 -16.8531 -16.7154 -16.6926 -16.6637
   -16.6523 -16.6391  -4.1028   4.1679   5.9169   7.0134

          k = 0.1768-0.3536-0.1768 (   852 PWs)   bands (ev):

   -17.0122 -16.9826 -16.8961 -16.8413 -16.8143 -16.7518 -16.7175 -16.6636
   -16.6337 -16.6211  -3.4756   2.5729   5.1348   6.7607

          k =-0.1768-0.1768 0.3536 (   852 PWs)   bands (ev):

   -17.0445 -17.0003 -16.8911 -16.8542 -16.8197 -16.7351 -16.7061 -16.6464
   -16.6416 -16.5891  -3.2781   1.5727   5.5694   6.8863

          k = 0.1768-0.1768-0.3536 (   852 PWs)   bands (ev):

   -16.9927 -16.9730 -16.8908 -16.8678 -16.8383 -16.7276 -16.6989 -16.6637
   -16.6470 -16.6356  -3.4554   2.4248   5.6512   6.2903

          k =-0.4419 0.2652 0.4419 (   842 PWs)   bands (ev):

   -17.0130 -16.9777 -16.8835 -16.8357 -16.8118 -16.7469 -16.7249 -16.6726
   -16.6241 -16.6165  -2.9021   1.3951   4.7708   6.7853

          k = 0.4419 0.4419-0.2652 (   842 PWs)   bands (ev):

   -17.0633 -17.0188 -16.8890 -16.8426 -16.8123 -16.7281 -16.7149 -16.6417
   -16.6222 -16.5631  -2.3261  -0.0769   5.2169   6.9505

          k =-0.4419 0.4419 0.2652 (   842 PWs)   bands (ev):

   -16.9929 -16.9660 -16.8830 -16.8625 -16.8172 -16.7376 -16.7094 -16.6696
   -16.6384 -16.6315  -2.9108   1.3746   5.6282   5.7977

          k =-0.3536 0.1768 0.3536 (   849 PWs)   bands (ev):

   -17.0136 -16.9782 -16.8861 -16.8414 -16.8226 -16.7346 -16.7276 -16.6730
   -16.6284 -16.6185  -3.0273   1.5956   4.7108   7.0848

          k = 0.3536 0.3536-0.1768 (   849 PWs)   bands (ev):

   -17.0677 -17.0366 -16.9054 -16.8200 -16.8130 -16.7408 -16.7253 -16.6356
   -16.6074 -16.5602  -2.5067   0.1024   5.2155   7.3574

          k =-0.3536 0.3536 0.1768 (   849 PWs)   bands (ev):

   -16.9955 -16.9697 -16.8862 -16.8629 -16.8024 -16.7543 -16.7102 -16.6802
   -16.6355 -16.6291  -3.0880   1.7628   5.5771   5.8485

          k =-0.2652 0.0884 0.2652 (   850 PWs)   bands (ev):

   -17.0103 -16.9821 -16.8971 -16.8453 -16.8366 -16.7212 -16.7189 -16.6610
   -16.6365 -16.6206  -3.6813   2.9328   5.0509   7.5814

          k = 0.2652 0.2652-0.0884 (   850 PWs)   bands (ev):

   -17.0528 -17.0379 -16.9163 -16.8185 -16.7993 -16.7577 -16.7228 -16.6321
   -16.6051 -16.5777  -3.4871   1.7153   5.6650   8.0520

          k =-0.2652 0.2652 0.0884 (   850 PWs)   bands (ev):

   -16.9920 -16.9727 -16.8918 -16.8700 -16.8084 -16.7485 -16.6958 -16.6829
   -16.6353 -16.6348  -3.7434   3.3527   5.6689   6.2347

          k = 0.1768 0.1768 0.0000 (   847 PWs)   bands (ev):

   -17.0244 -17.0239 -16.9131 -16.8328 -16.8199 -16.7341 -16.7137 -16.6353
   -16.6130 -16.6082  -4.2110   3.5062   6.6663   8.8509

          k =-0.1768 0.1768 0.0000 (   847 PWs)   bands (ev):

   -16.9866 -16.9752 -16.8999 -16.8749 -16.8227 -16.7288 -16.6826 -16.6805
   -16.6420 -16.6323  -4.3082   5.3089   6.2821   6.5987

          k = 0.0000 0.0000 0.3536 (   849 PWs)   bands (ev):

   -16.9930 -16.9747 -16.8854 -16.8669 -16.8545 -16.7300 -16.6750 -16.6648
   -16.6459 -16.6438  -3.7864   3.5281   5.4523   6.4860

          k = 0.0884-0.4419-0.0884 (   845 PWs)   bands (ev):

   -17.0377 -17.0094 -16.8964 -16.8099 -16.7975 -16.7713 -16.7253 -16.6607
   -16.6092 -16.5951  -3.1936   2.2120   4.9128   5.9752

          k =-0.0884-0.0884 0.4419 (   845 PWs)   bands (ev):

   -17.0177 -16.9689 -16.8808 -16.8634 -16.8300 -16.7500 -16.6854 -16.6546
   -16.6524 -16.6116  -3.1399   2.0584   4.7511   6.1237

          k = 0.0884-0.0884-0.4419 (   845 PWs)   bands (ev):

   -16.9944 -16.9665 -16.8739 -16.8709 -16.8449 -16.7385 -16.6758 -16.6734
   -16.6395 -16.6392  -3.1963   2.3000   5.1546   5.6552

          k =-0.5303 0.1768 0.5303 (   845 PWs)   bands (ev):

   -17.0446 -17.0032 -16.8780 -16.8205 -16.7939 -16.7560 -16.7351 -16.6798
   -16.6084 -16.5861  -2.5331   1.2342   3.9305   5.9790

          k = 0.5303 0.5303-0.1768 (   845 PWs)   bands (ev):

   -17.0527 -16.9818 -16.8846 -16.8460 -16.8035 -16.7579 -16.7041 -16.6494
   -16.6460 -16.5772  -2.2081   0.4192   4.0512   6.1467

          k =-0.5303 0.5303 0.1768 (   845 PWs)   bands (ev):

   -16.9976 -16.9623 -16.8714 -16.8619 -16.8371 -16.7376 -16.7020 -16.6779
   -16.6327 -16.6299  -2.5841   1.3332   4.7420   5.1284

          k =-0.4419 0.0884 0.4419 (   843 PWs)   bands (ev):

   -17.0472 -16.9995 -16.8694 -16.8381 -16.7944 -16.7504 -16.7227 -16.6896
   -16.6099 -16.5809  -2.3690   0.9399   3.6232   6.2917

          k = 0.4419 0.4419-0.0884 (   843 PWs)   bands (ev):

   -17.0742 -17.0054 -16.8979 -16.8247 -16.8071 -16.7346 -16.7280 -16.6361
   -16.6353 -16.5527  -1.6740  -0.4283   3.8597   6.5507

          k =-0.4419 0.4419 0.0884 (   843 PWs)   bands (ev):

   -16.9973 -16.9642 -16.8705 -16.8595 -16.8141 -16.7417 -16.7187 -16.6881
   -16.6275 -16.6265  -2.5656   1.4461   4.1803   5.3789

          k = 0.3536 0.3536 0.0000 (   847 PWs)   bands (ev):

   -17.0736 -17.0268 -16.9139 -16.8135 -16.7975 -16.7572 -16.7238 -16.6334
   -16.6133 -16.5533  -2.6397   0.5862   4.3706   7.2737

          k =-0.3536 0.3536 0.0000 (   847 PWs)   bands (ev):

   -16.9983 -16.9709 -16.8799 -16.8630 -16.7783 -16.7751 -16.7091 -16.6875
   -16.6320 -16.6264  -3.1508   2.5387   4.2648   5.8212

          k = 0.0000 0.0000 0.5303 (   842 PWs)   bands (ev):

   -16.9983 -16.9563 -16.8765 -16.8590 -16.8492 -16.7464 -16.6817 -16.6563
   -16.6478 -16.6313  -2.6699   1.4604   4.7997   5.6585

          k =-0.6187 0.0884 0.6187 (   843 PWs)   bands (ev):

   -17.0576 -17.0310 -16.8710 -16.8394 -16.7723 -16.7521 -16.7246 -16.6861
   -16.5874 -16.5692  -1.8858   0.2044   4.5280   5.4128

          k = 0.6187 0.6187-0.0884 (   843 PWs)   bands (ev):

   -17.0229 -16.9548 -16.8777 -16.8492 -16.8261 -16.7641 -16.6934 -16.6556
   -16.6486 -16.6043  -1.9444   0.4454   4.0425   5.5773

          k =-0.6187 0.6187 0.0884 (   843 PWs)   bands (ev):

   -16.9976 -16.9540 -16.8691 -16.8557 -16.8534 -16.7411 -16.6876 -16.6776
   -16.6382 -16.6246  -2.0906   0.7035   4.7188   4.9388

          k = 0.5303 0.5303 0.0000 (   834 PWs)   bands (ev):

   -17.0546 -16.9725 -16.8838 -16.8303 -16.7911 -16.7681 -16.7104 -16.6514
   -16.6411 -16.5677  -1.1762  -0.5663   3.4312   5.8904

          k =-0.5303 0.5303 0.0000 (   834 PWs)   bands (ev):

   -16.9971 -16.9565 -16.8597 -16.8568 -16.8412 -16.7282 -16.7069 -16.6851
   -16.6269 -16.6200  -2.0554   0.8089   4.1194   4.9345

          k = 0.0000 0.0000-0.7071 (   846 PWs)   bands (ev):

   -17.0010 -16.9471 -16.8759 -16.8562 -16.8550 -16.7426 -16.6953 -16.6576
   -16.6513 -16.6228  -1.7599   0.2257   4.5674   5.3782

          k = 0.1768-0.3536 0.0000 (   849 PWs)   bands (ev):

   -17.0101 -16.9845 -16.9005 -16.8434 -16.7957 -16.7679 -16.7122 -16.6621
   -16.6291 -16.6255  -3.6504   3.4387   5.2024   5.7732

          k = 0.0000-0.1768 0.3536 (   849 PWs)   bands (ev):

   -17.0141 -16.9774 -16.8874 -16.8597 -16.8362 -16.7357 -16.6942 -16.6637
   -16.6424 -16.6185  -3.5662   2.7813   5.0099   6.6520

          k =-0.3536 0.0000 0.1768 (   849 PWs)   bands (ev):

   -17.0379 -17.0130 -16.9017 -16.8227 -16.8134 -16.7506 -16.7212 -16.6549
   -16.6140 -16.5967  -3.5454   2.5198   5.2023   6.8513

          k =-0.4419 0.2652 0.6187 (   850 PWs)   bands (ev):

   -17.0162 -16.9788 -16.8860 -16.8357 -16.7995 -16.7643 -16.7283 -16.6736
   -16.6250 -16.6174  -2.9934   2.0831   4.5131   5.4632

          k = 0.6187 0.4419-0.2652 (   850 PWs)   bands (ev):

   -17.0490 -16.9931 -16.8814 -16.8558 -16.8082 -16.7475 -16.7029 -16.6670
   -16.6310 -16.5826  -2.7044   1.0095   4.4491   6.3037

          k =-0.6187 0.4419 0.2652 (   850 PWs)   bands (ev):

   -17.0170 -16.9752 -16.8764 -16.8535 -16.8285 -16.7413 -16.7060 -16.6794
   -16.6309 -16.6153  -2.8977   1.6902   4.3519   6.0102

          k = 0.2652 0.6187-0.4419 (   850 PWs)   bands (ev):

   -17.0552 -17.0400 -16.8876 -16.8296 -16.8003 -16.7430 -16.7250 -16.6679
   -16.5917 -16.5750  -2.6508   0.7590   4.9860   6.0148

          k = 0.2652-0.6187 0.4419 (   850 PWs)   bands (ev):

   -17.0426 -17.0076 -16.8825 -16.8224 -16.8021 -16.7558 -16.7281 -16.6793
   -16.6102 -16.5896  -2.8679   1.5936   4.0612   6.5120

          k =-0.3536 0.1768 0.5303 (   838 PWs)   bands (ev):

   -17.0161 -16.9715 -16.8750 -16.8337 -16.8188 -16.7372 -16.7306 -16.6780
   -16.6235 -16.6097  -2.5610   1.2454   4.2537   5.5482

          k = 0.1768 0.5303-0.3536 (   838 PWs)   bands (ev):

   -17.0568 -17.0492 -16.8756 -16.8375 -16.7972 -16.7339 -16.7221 -16.6693
   -16.5795 -16.5621  -1.9026  -0.2993   5.0598   5.5506

          k = 0.1768-0.5303 0.3536 (   838 PWs)   bands (ev):

   -17.0440 -17.0042 -16.8722 -16.8216 -16.7919 -16.7551 -16.7287 -16.6864
   -16.6044 -16.5817  -2.4683   1.0419   3.7315   6.3621

          k =-0.5303 0.1768 0.7071 (   856 PWs)   bands (ev):

   -17.0445 -17.0034 -16.8870 -16.8212 -16.7986 -16.7537 -16.7430 -16.6752
   -16.6122 -16.5921  -2.5933   1.4150   4.6798   4.8775

          k = 0.7071 0.5303-0.1768 (   856 PWs)   bands (ev):

   -17.0213 -16.9661 -16.8737 -16.8643 -16.8271 -16.7588 -16.6905 -16.6783
   -16.6412 -16.6117  -2.5063   1.2071   4.2891   5.4280

          k = 0.1768 0.7071-0.5303 (   856 PWs)   bands (ev):

   -17.0563 -17.0425 -16.8851 -16.8224 -16.7901 -16.7543 -16.7355 -16.6779
   -16.5851 -16.5772  -2.3963   0.7700   4.6552   5.4798

          k =-0.4419 0.0884 0.6187 (   844 PWs)   bands (ev):

   -17.0488 -16.9921 -16.8663 -16.8435 -16.7862 -16.7555 -16.7243 -16.6877
   -16.6133 -16.5805  -2.0041   0.6244   3.8757   4.9757

          k = 0.6187 0.4419-0.0884 (   844 PWs)   bands (ev):

   -17.0549 -16.9791 -16.8800 -16.8427 -16.7905 -16.7682 -16.7059 -16.6720
   -16.6313 -16.5720  -1.5922  -0.0940   3.6532   5.4586

          k =-0.6187 0.4419 0.0884 (   844 PWs)   bands (ev):

   -17.0197 -16.9672 -16.8621 -16.8488 -16.8238 -16.7525 -16.7065 -16.6886
   -16.6282 -16.6041  -2.0722   0.7867   4.1278   4.6684

          k = 0.0884 0.6187-0.4419 (   844 PWs)   bands (ev):

   -17.0590 -17.0519 -16.8661 -16.8381 -16.7765 -16.7481 -16.7244 -16.6906
   -16.5736 -16.5641  -1.4510  -0.4163   4.3861   4.9844

          k = 0.0884-0.6187 0.4419 (   844 PWs)   bands (ev):

   -17.0597 -17.0352 -16.8639 -16.8367 -16.7695 -16.7599 -16.7253 -16.6971
   -16.5822 -16.5650  -1.8048   0.1981   3.7912   5.3764

          k = 0.5303 0.3536 0.0000 (   850 PWs)   bands (ev):

   -17.0761 -17.0059 -16.8988 -16.8238 -16.8058 -16.7376 -16.7302 -16.6579
   -16.6206 -16.5521  -1.4571  -0.5097   3.7490   5.9302

          k =-0.5303 0.3536-0.0000 (   850 PWs)   bands (ev):

   -17.0188 -16.9711 -16.8738 -16.8322 -16.8243 -16.7411 -16.7381 -16.6835
   -16.6245 -16.6114  -2.3792   1.3288   4.0122   4.7648

          k = 0.0000 0.5303-0.3536 (   850 PWs)   bands (ev):

   -17.0607 -17.0357 -16.8675 -16.8381 -16.7809 -16.7540 -16.7238 -16.6958
   -16.5863 -16.5678  -1.9804   0.2906   3.8700   5.5984

          k =-0.0000-0.1768-0.7071 (   848 PWs)   bands (ev):

   -17.0223 -16.9588 -16.8706 -16.8536 -16.8260 -16.7607 -16.6978 -16.6788
   -16.6363 -16.6021  -1.6768   0.2014   4.0533   4.9756

          k = 0.7071 0.0000 0.1768 (   848 PWs)   bands (ev):

   -17.0548 -17.0548 -16.8547 -16.8547 -16.7639 -16.7639 -16.7077 -16.7077
   -16.5683 -16.5683  -0.9100  -0.9100   4.7220   4.7220

          k = 0.7071 0.0000 0.3536 (   848 PWs)   bands (ev):

   -17.0572 -17.0572 -16.8493 -16.8493 -16.7623 -16.7623 -16.7138 -16.7138
   -16.5666 -16.5666  -0.8655  -0.8655   4.3503   4.3503

     highest occupied level (ev):     8.8509

!    total energy              =    -426.10699673 Ry
     estimated scf accuracy    <       0.00000003 Ry

     The total energy is the sum of the following terms:
     one-electron contribution =    -280.24793894 Ry
     hartree contribution      =     165.39561700 Ry
     xc contribution           =    -114.50545672 Ry
     ewald contribution        =    -196.74921808 Ry

     convergence has been achieved in   6 iterations

     Forces acting on atoms (cartesian axes, Ry/au):

     atom    1 type  1   force =     0.00000000    0.00000000   -0.11321761
     atom    2 type  1   force =     0.00000000    0.00000000    0.11321761

     Total force =     0.160114     Total SCF correction =     0.000909


     Computing stress (Cartesian axis) and pressure

          total   stress  (Ry/bohr**3)                   (kbar)     P=     -136.65
  -0.00085426   0.00053169  -0.00000000         -125.67       78.21       -0.00
   0.00053169  -0.00085426   0.00000000           78.21     -125.67        0.00
  -0.00000000  -0.00000000  -0.00107819           -0.00       -0.00     -158.61

     Message from routine punch:
     Nothing written, as per user request (disk_io='none')

     init_run     :      1.43s CPU      1.48s WALL (       1 calls)
     electrons    :     17.59s CPU     17.82s WALL (       1 calls)
     forces       :      0.14s CPU      0.14s WALL (       1 calls)
     stress       :      0.92s CPU      0.93s WALL (       1 calls)

     Called by init_run:
     wfcinit      :      1.11s CPU      1.14s WALL (       1 calls)
     potinit      :      0.02s CPU      0.02s WALL (       1 calls)
     hinit0       :      0.27s CPU      0.27s WALL (       1 calls)

     Called by electrons:
     c_bands      :     14.78s CPU     14.96s WALL (       7 calls)
     sum_band     :      2.66s CPU      2.70s WALL (       7 calls)
     v_of_rho     :      0.01s CPU      0.01s WALL (       7 calls)
     newd         :      0.15s CPU      0.16s WALL (       7 calls)
     mix_rho      :      0.01s CPU      0.01s WALL (       7 calls)

     Called by c_bands:
     init_us_2    :      0.49s CPU      0.50s WALL (    1615 calls)
     cegterg      :     13.66s CPU     13.82s WALL (     665 calls)

     Called by *egterg:
     cdiaghg      :      0.57s CPU      0.58s WALL (    2203 calls)
     h_psi        :     12.62s CPU     12.77s WALL (    2393 calls)
     s_psi        :      0.26s CPU      0.27s WALL (    2393 calls)
     g_psi        :      0.06s CPU      0.06s WALL (    1633 calls)

     Called by h_psi:
     h_psi:calbec :      0.37s CPU      0.38s WALL (    2393 calls)
     vloc_psi     :     11.88s CPU     12.02s WALL (    2393 calls)
     add_vuspsi   :      0.28s CPU      0.29s WALL (    2393 calls)

     General routines
     calbec       :      0.71s CPU      0.72s WALL (    4673 calls)
     fft          :      0.09s CPU      0.09s WALL (      37 calls)
     ffts         :      0.00s CPU      0.00s WALL (       7 calls)
     fftw         :     12.63s CPU     12.80s WALL (   60064 calls)

     Parallel routines

     PWSCF        :     20.21s CPU     20.51s WALL


   This run was terminated on:   1:42:38   8Oct2025            

=------------------------------------------------------------------------------=
   JOB DONE.
=------------------------------------------------------------------------------=
