LAMMPS (22 Jul 2025 - Update 1)
# ---------- 1. Initialize simulation ---------------------
units metal
atom_style atomic
dimension  3
boundary   p p f
read_data /home/bond/Work/Lab1/Surface/EAM/relax/9_6_110/lammps.data
Reading data file ...
  orthogonal box = (0 0 0) to (12.244965 8.6584976 23.544663)
  1 by 1 by 1 MPI processor grid
  reading atoms ...
  81 atoms
  read_data CPU = 0.001 seconds

# ---------- 2. Specify interatomic potential ---------------------
pair_style eam/alloy
pair_coeff * * /home/bond/Software/LAMMPS/lammps-22Jul2025/potentials/Al_zhou.eam.alloy  Al
Reading eam/alloy potential file /home/bond/Software/LAMMPS/lammps-22Jul2025/potentials/Al_zhou.eam.alloy with DATE: 2007-10-12

# pair_style lj/cut 4.5
# pair_coeff 1 1 0.392 2.620 4.5

# ---------- 3. Run single point calculation  ---------------------
thermo_style custom step pe lx ly lz press pxx pyy pzz
run 0
WARNING: No fixes with time integration, atoms won't move
For more information see https://docs.lammps.org/err0028 (../verlet.cpp:60)
Neighbor list info ...
  update: every = 1 steps, delay = 0 steps, check = yes
  max neighbors/atom: 2000, page size: 100000
  master list distance cutoff = 12.1025
  ghost atom cutoff = 12.1025
  binsize = 6.05125, bins = 3 2 4
  1 neighbor lists, perpetual/occasional/extra = 1 0 0
  (1) pair eam/alloy, perpetual
      attributes: half, newton on
      pair build: half/bin/atomonly/newton
      stencil: half/bin/3d
      bin: standard
Per MPI rank memory allocation (min/avg/max) = 3.331 | 3.331 | 3.331 Mbytes
   Step         PotEng           Lx             Ly             Lz           Press           Pxx            Pyy            Pzz      
         0  -276.98048      12.244965      8.6584976      23.544663     -16725.034     -20561.741     -19280.369     -10332.993    
Loop time of 2.08e-06 on 1 procs for 0 steps with 81 atoms

96.2% CPU use with 1 MPI tasks x no OpenMP threads

MPI task timing breakdown:
Section |  min time  |  avg time  |  max time  |%varavg| %total
---------------------------------------------------------------
Pair    | 0          | 0          | 0          |   0.0 |  0.00
Neigh   | 0          | 0          | 0          |   0.0 |  0.00
Comm    | 0          | 0          | 0          |   0.0 |  0.00
Output  | 0          | 0          | 0          |   0.0 |  0.00
Modify  | 0          | 0          | 0          |   0.0 |  0.00
Other   |            | 2.08e-06   |            |       |100.00

Nlocal:             81 ave          81 max          81 min
Histogram: 1 0 0 0 0 0 0 0 0 0
Nghost:            795 ave         795 max         795 min
Histogram: 1 0 0 0 0 0 0 0 0 0
Neighs:          11322 ave       11322 max       11322 min
Histogram: 1 0 0 0 0 0 0 0 0 0

Total # of neighbors = 11322
Ave neighs/atom = 139.77778
Neighbor list builds = 0
Dangerous builds = 0
# -- include optimization of the unit cell parameter
#fix 1 all box/relax x 0.0 y 0.0 couple xy vmax 0.001

# -- enable optimization of atomic positions (and the cell)
min_style cg
minimize 1e-10 1e-10 1000 10000
Per MPI rank memory allocation (min/avg/max) = 4.456 | 4.456 | 4.456 Mbytes
   Step         PotEng           Lx             Ly             Lz           Press           Pxx            Pyy            Pzz      
         0  -276.98048      12.244965      8.6584976      23.544663     -16725.034     -20561.741     -19280.369     -10332.993    
         9  -277.35543      12.244965      8.6584976      23.544663     -8004.5561     -12000.602     -12013.09       0.022942822  
Loop time of 0.0113579 on 1 procs for 9 steps with 81 atoms

100.0% CPU use with 1 MPI tasks x no OpenMP threads

Minimization stats:
  Stopping criterion = energy tolerance
  Energy initial, next-to-last, final = 
     -276.980477542257  -277.355425047954  -277.355425048292
  Force two-norm initial, final = 1.5801569 6.482625e-06
  Force max component initial, final = 0.32281095 1.3249203e-06
  Final line search alpha, max atom move = 1 1.3249203e-06
  Iterations, force evaluations = 9 18

MPI task timing breakdown:
Section |  min time  |  avg time  |  max time  |%varavg| %total
---------------------------------------------------------------
Pair    | 0.011081   | 0.011081   | 0.011081   |   0.0 | 97.56
Neigh   | 0          | 0          | 0          |   0.0 |  0.00
Comm    | 0.0001301  | 0.0001301  | 0.0001301  |   0.0 |  1.15
Output  | 0          | 0          | 0          |   0.0 |  0.00
Modify  | 0          | 0          | 0          |   0.0 |  0.00
Other   |            | 0.0001469  |            |       |  1.29

Nlocal:             81 ave          81 max          81 min
Histogram: 1 0 0 0 0 0 0 0 0 0
Nghost:            795 ave         795 max         795 min
Histogram: 1 0 0 0 0 0 0 0 0 0
Neighs:          11322 ave       11322 max       11322 min
Histogram: 1 0 0 0 0 0 0 0 0 0

Total # of neighbors = 11322
Ave neighs/atom = 139.77778
Neighbor list builds = 0
Dangerous builds = 0

# ---- 4. Define and print useful variables -------------
variable natoms equal "count(all)"
variable totenergy equal "pe"
variable length equal "lx"

print "Total energy (eV) = ${totenergy}"
Total energy (eV) = -277.355425048292
print "Number of atoms = ${natoms}"
Number of atoms = 81
print "Lattice constant (Angstoms) = ${length}"
Lattice constant (Angstoms) = 12.2449647145904
Total wall time: 0:00:00
