
     Program PWSCF v.7.4.1 starts on  8Oct2025 at 21:36:54 

     This program is part of the open-source Quantum ESPRESSO suite
     for quantum simulation of materials; please cite
         "P. Giannozzi et al., J. Phys.:Condens. Matter 21 395502 (2009);
         "P. Giannozzi et al., J. Phys.:Condens. Matter 29 465901 (2017);
         "P. Giannozzi et al., J. Chem. Phys. 152 154105 (2020);
          URL http://www.quantum-espresso.org", 
     in publications or presentations arising from this work. More details at
     http://www.quantum-espresso.org/quote

     Parallel version (MPI), running on     1 processors

     MPI processes distributed on     1 nodes
     692 MiB available memory on the printing compute node when the environment starts

     Waiting for input...
     Reading input from standard input
Warning: card &CELL ignored
Warning: card / ignored

     Current dimensions of program PWSCF are:
     Max number of different atomic species (ntypx) = 10
     Max number of k-points (npk) =  40000
     Max angular momentum in pseudopotentials (lmaxx) =  4
     Message from routine find_sym:
     Not a group! Trying with lower acceptance parameter...
     Message from routine find_sym:
     Still not a group! symmetry disabled

     Subspace diagonalization in iterative solution of the eigenvalue problem:
     a serial algorithm will be used


     G-vector sticks info
     --------------------
     sticks:   dense  smooth     PW     G-vecs:    dense   smooth      PW
     Sum         511     511    163                 7727     7727    1411

     Using Slab Decomposition



     bravais-lattice index     =            0
     lattice parameter (alat)  =       7.2870  a.u.
     unit-cell volume          =     273.6042 (a.u.)^3
     number of atoms/cell      =            2
     number of atomic types    =            1
     number of electrons       =        28.00
     number of Kohn-Sham states=           14
     kinetic-energy cutoff     =      35.0000  Ry
     charge density cutoff     =     140.0000  Ry
     scf convergence threshold =      1.0E-07
     mixing beta               =       0.5000
     number of iterations used =            8  plain     mixing
     Exchange-correlation=  SLA  PZ   NOGX NOGC
                           (   1   1   0   0   0   0   0)

     celldm(1)=   7.286952  celldm(2)=   0.000000  celldm(3)=   0.000000
     celldm(4)=   0.000000  celldm(5)=   0.000000  celldm(6)=   0.000000

     crystal axes: (cart. coord. in units of alat)
               a(1) = (   0.000000   0.707107   0.707107 )  
               a(2) = (   0.707107   0.000000   0.707107 )  
               a(3) = (   0.707107   0.707107   0.000000 )  

     reciprocal axes: (cart. coord. in units 2 pi/alat)
               b(1) = ( -0.707107  0.707107  0.707107 )  
               b(2) = (  0.707107 -0.707107  0.707107 )  
               b(3) = (  0.707107  0.707107 -0.707107 )  


     PseudoPot. # 1 for Ge read from file:
     /home/bond/Software/QE/qe-7.4.1/pseudo/ge_lda_v1.4.uspp.F.UPF
     MD5 check sum: bf9d52b59cc8a669818bb2b52e0c2ba0
     Pseudo is Ultrasoft + core correction, Zval = 14.0
     Generated by new atomic code, or converted to UPF format
     Using radial grid of  873 points,  6 beta functions with: 
                l(1) =   0
                l(2) =   0
                l(3) =   1
                l(4) =   1
                l(5) =   2
                l(6) =   2
     Q(r) pseudized with  8 coefficients,  rinner =    1.400   1.400   1.400
                                                       1.400   1.400

     atomic species   valence    mass     pseudopotential
     Ge               14.00    72.63000     Ge( 1.00)

     No symmetry found



   Cartesian axes

     site n.     atom                  positions (alat units)
         1        Ge     tau(   1) = (   0.0000000   0.0000000   0.0000000  )
         2        Ge     tau(   2) = (   0.3535525   0.3535525   0.3535525  )

     number of k points=   504

     Number of k-points >= 100: set verbosity='high' to print them.

     Dense  grid:     7727 G-vectors     FFT dimensions: (  32,  32,  32)

     Estimated max dynamical RAM per process >     133.88 MB

     Check: negative core charge=   -0.000013

     Initial potential from superposition of free atoms

     starting charge      27.9986, renormalised to      28.0000
     Starting wfcs are   18 randomized atomic wfcs

     total cpu time spent up to now is        4.8 secs

     Self-consistent Calculation

     iteration #  1     ecut=    35.00 Ry     beta= 0.50
     Davidson diagonalization with overlap
     ethr =  1.00E-02,  avg # of iterations =  2.0

     Threshold (ethr) on eigenvalues was too large:
     Diagonalizing with lowered threshold

     Davidson diagonalization with overlap
     ethr =  1.41E-04,  avg # of iterations =  2.0

     total cpu time spent up to now is       21.5 secs

     total energy              =    -426.16350583 Ry
     estimated scf accuracy    <       0.04115700 Ry

     iteration #  2     ecut=    35.00 Ry     beta= 0.50
     Davidson diagonalization with overlap
     ethr =  1.47E-04,  avg # of iterations =  1.1

     total cpu time spent up to now is       29.3 secs

     total energy              =    -426.16202990 Ry
     estimated scf accuracy    <       0.00691673 Ry

     iteration #  3     ecut=    35.00 Ry     beta= 0.50
     Davidson diagonalization with overlap
     ethr =  2.47E-05,  avg # of iterations =  2.0

     total cpu time spent up to now is       38.3 secs

     total energy              =    -426.16259978 Ry
     estimated scf accuracy    <       0.00007716 Ry

     iteration #  4     ecut=    35.00 Ry     beta= 0.50
     Davidson diagonalization with overlap
     ethr =  2.76E-07,  avg # of iterations =  3.3

     total cpu time spent up to now is       49.8 secs

     total energy              =    -426.16262412 Ry
     estimated scf accuracy    <       0.00000282 Ry

     iteration #  5     ecut=    35.00 Ry     beta= 0.50
     Davidson diagonalization with overlap
     ethr =  1.01E-08,  avg # of iterations =  3.5

     total cpu time spent up to now is       61.3 secs

     total energy              =    -426.16262507 Ry
     estimated scf accuracy    <       0.00000022 Ry

     iteration #  6     ecut=    35.00 Ry     beta= 0.50
     Davidson diagonalization with overlap
     ethr =  7.69E-10,  avg # of iterations =  2.6

     total cpu time spent up to now is       71.7 secs

     End of self-consistent calculation

     Number of k-points >= 100: set verbosity='high' to print the bands.

     highest occupied level (ev):     9.6877

!    total energy              =    -426.16262512 Ry
     estimated scf accuracy    <       0.00000005 Ry

     The total energy is the sum of the following terms:
     one-electron contribution =    -266.90163898 Ry
     hartree contribution      =     160.32255538 Ry
     xc contribution           =    -114.67698775 Ry
     ewald contribution        =    -204.90655376 Ry

     convergence has been achieved in   6 iterations

     Forces acting on atoms (cartesian axes, Ry/au):

     atom    1 type  1   force =    -0.00000115   -0.00000346   -0.00000435
     atom    2 type  1   force =     0.00000115    0.00000346    0.00000435

     Total force =     0.000008     Total SCF correction =     0.000009
     SCF correction compared to forces is large: reduce conv_thr to get better values


     Computing stress (Cartesian axis) and pressure

          total   stress  (Ry/bohr**3)                   (kbar)     P=       68.68
   0.00046688   0.00000001   0.00000001           68.68        0.00        0.00
   0.00000001   0.00046688   0.00000001            0.00       68.68        0.00
   0.00000001   0.00000001   0.00046688            0.00        0.00       68.68

     Message from routine punch:
     Nothing written, as per user request (disk_io='none')

     init_run     :      4.53s CPU      4.69s WALL (       1 calls)
     electrons    :     65.70s CPU     66.92s WALL (       1 calls)
     forces       :      0.52s CPU      0.52s WALL (       1 calls)
     stress       :      2.64s CPU      2.65s WALL (       1 calls)

     Called by init_run:
     wfcinit      :      4.18s CPU      4.32s WALL (       1 calls)
     potinit      :      0.01s CPU      0.01s WALL (       1 calls)
     hinit0       :      0.27s CPU      0.28s WALL (       1 calls)

     Called by electrons:
     c_bands      :     56.20s CPU     57.26s WALL (       7 calls)
     sum_band     :      9.36s CPU      9.52s WALL (       7 calls)
     v_of_rho     :      0.01s CPU      0.01s WALL (       7 calls)
     newd         :      0.14s CPU      0.15s WALL (       7 calls)
     mix_rho      :      0.00s CPU      0.00s WALL (       7 calls)

     Called by c_bands:
     init_us_2    :      2.07s CPU      2.12s WALL (    8568 calls)
     cegterg      :     51.24s CPU     52.16s WALL (    3528 calls)

     Called by *egterg:
     cdiaghg      :      2.04s CPU      2.08s WALL (   11344 calls)
     h_psi        :     46.44s CPU     47.36s WALL (   12352 calls)
     s_psi        :      1.18s CPU      1.20s WALL (   12352 calls)
     g_psi        :      0.30s CPU      0.30s WALL (    8320 calls)

     Called by h_psi:
     h_psi:calbec :      1.53s CPU      1.55s WALL (   12352 calls)
     vloc_psi     :     43.32s CPU     44.19s WALL (   12352 calls)
     add_vuspsi   :      1.25s CPU      1.27s WALL (   12352 calls)

     General routines
     calbec       :      2.86s CPU      2.90s WALL (   24448 calls)
     fft          :      0.14s CPU      0.14s WALL (      37 calls)
     ffts         :      0.00s CPU      0.00s WALL (       7 calls)
     fftw         :     43.07s CPU     43.91s WALL (  316626 calls)

     Parallel routines

     PWSCF        :   1m13.48s CPU   1m14.88s WALL


   This run was terminated on:  21:38: 9   8Oct2025            

=------------------------------------------------------------------------------=
   JOB DONE.
=------------------------------------------------------------------------------=
