LAMMPS (22 Jul 2025 - Update 1)
# ---------- 1. Initialize simulation ---------------------
units metal
atom_style atomic
dimension  3
boundary   p p p
read_data /home/bond/Work/Lab1/Vacancy/EAM/relax/3/lammps.data
Reading data file ...
  orthogonal box = (0 0 0) to (12.244965 12.244965 12.244965)
  1 by 1 by 1 MPI processor grid
  reading atoms ...
  107 atoms
  read_data CPU = 0.001 seconds

# ---------- 2. Specify interatomic potential ---------------------
pair_style eam/alloy
pair_coeff * * /home/bond/Software/LAMMPS/lammps-22Jul2025/potentials/Al_zhou.eam.alloy  Al
Reading eam/alloy potential file /home/bond/Software/LAMMPS/lammps-22Jul2025/potentials/Al_zhou.eam.alloy with DATE: 2007-10-12

# pair_style lj/cut 4.5
# pair_coeff 1 1 0.392 2.620 4.5

# ---------- 3. Run single point calculation  ---------------------
thermo_style custom step pe lx ly lz press pxx pyy pzz
run 0
WARNING: No fixes with time integration, atoms won't move
For more information see https://docs.lammps.org/err0028 (../verlet.cpp:60)
Neighbor list info ...
  update: every = 1 steps, delay = 0 steps, check = yes
  max neighbors/atom: 2000, page size: 100000
  master list distance cutoff = 12.1025
  ghost atom cutoff = 12.1025
  binsize = 6.05125, bins = 3 3 3
  1 neighbor lists, perpetual/occasional/extra = 1 0 0
  (1) pair eam/alloy, perpetual
      attributes: half, newton on
      pair build: half/bin/atomonly/newton
      stencil: half/bin/3d
      bin: standard
Per MPI rank memory allocation (min/avg/max) = 3.429 | 3.429 | 3.429 Mbytes
   Step         PotEng           Lx             Ly             Lz           Press           Pxx            Pyy            Pzz      
         0  -382.25282      12.244965      12.244965      12.244965     -2636.3074     -2636.3083     -2636.3057     -2636.3083    
Loop time of 1.558e-06 on 1 procs for 0 steps with 107 atoms

128.4% CPU use with 1 MPI tasks x no OpenMP threads

MPI task timing breakdown:
Section |  min time  |  avg time  |  max time  |%varavg| %total
---------------------------------------------------------------
Pair    | 0          | 0          | 0          |   0.0 |  0.00
Neigh   | 0          | 0          | 0          |   0.0 |  0.00
Comm    | 0          | 0          | 0          |   0.0 |  0.00
Output  | 0          | 0          | 0          |   0.0 |  0.00
Modify  | 0          | 0          | 0          |   0.0 |  0.00
Other   |            | 1.558e-06  |            |       |100.00

Nlocal:            107 ave         107 max         107 min
Histogram: 1 0 0 0 0 0 0 0 0 0
Nghost:           2331 ave        2331 max        2331 min
Histogram: 1 0 0 0 0 0 0 0 0 0
Neighs:          22684 ave       22684 max       22684 min
Histogram: 1 0 0 0 0 0 0 0 0 0

Total # of neighbors = 22684
Ave neighs/atom = 212
Neighbor list builds = 0
Dangerous builds = 0
# -- include optimization of the unit cell parameter
fix 1 all box/relax iso 0.0 vmax 0.001

# -- enable optimization of atomic positions (and the cell)
min_style cg
minimize 1e-10 1e-10 1000 10000
WARNING: Energy due to 1 extra global DOFs will be included in minimizer energies
 (../min.cpp:222)
Per MPI rank memory allocation (min/avg/max) = 4.554 | 4.554 | 4.554 Mbytes
   Step         PotEng           Lx             Ly             Lz           Press           Pxx            Pyy            Pzz      
         0  -382.25282      12.244965      12.244965      12.244965     -2636.3074     -2636.3083     -2636.3057     -2636.3083    
        12  -382.34595      12.231132      12.231132      12.231132      3.5610009      3.5608338      3.5613351      3.5608338    
Loop time of 0.0272084 on 1 procs for 12 steps with 107 atoms

100.0% CPU use with 1 MPI tasks x no OpenMP threads

Minimization stats:
  Stopping criterion = energy tolerance
  Energy initial, next-to-last, final = 
       -382.2528225431  -382.345944989136  -382.345945010097
  Force two-norm initial, final = 9.096926 0.015736481
  Force max component initial, final = 9.0631583 0.012214448
  Final line search alpha, max atom move = 0.12494918 0.0015261853
  Iterations, force evaluations = 12 24

MPI task timing breakdown:
Section |  min time  |  avg time  |  max time  |%varavg| %total
---------------------------------------------------------------
Pair    | 0.025969   | 0.025969   | 0.025969   |   0.0 | 95.44
Neigh   | 0          | 0          | 0          |   0.0 |  0.00
Comm    | 0.00027256 | 0.00027256 | 0.00027256 |   0.0 |  1.00
Output  | 0          | 0          | 0          |   0.0 |  0.00
Modify  | 0          | 0          | 0          |   0.0 |  0.00
Other   |            | 0.000967   |            |       |  3.55

Nlocal:            107 ave         107 max         107 min
Histogram: 1 0 0 0 0 0 0 0 0 0
Nghost:           2331 ave        2331 max        2331 min
Histogram: 1 0 0 0 0 0 0 0 0 0
Neighs:          22684 ave       22684 max       22684 min
Histogram: 1 0 0 0 0 0 0 0 0 0

Total # of neighbors = 22684
Ave neighs/atom = 212
Neighbor list builds = 0
Dangerous builds = 0

# ---- 4. Define and print useful variables -------------
variable natoms equal "count(all)"
variable totenergy equal "pe"
variable length equal "lx"

print "Total energy (eV) = ${totenergy}"
Total energy (eV) = -382.345945010097
print "Number of atoms = ${natoms}"
Number of atoms = 107
print "Lattice constant (Angstoms) = ${length}"
Lattice constant (Angstoms) = 12.2311323396012
Total wall time: 0:00:00
