
     Program PWSCF v.7.4.1 starts on  8Oct2025 at 21:47: 8 

     This program is part of the open-source Quantum ESPRESSO suite
     for quantum simulation of materials; please cite
         "P. Giannozzi et al., J. Phys.:Condens. Matter 21 395502 (2009);
         "P. Giannozzi et al., J. Phys.:Condens. Matter 29 465901 (2017);
         "P. Giannozzi et al., J. Chem. Phys. 152 154105 (2020);
          URL http://www.quantum-espresso.org", 
     in publications or presentations arising from this work. More details at
     http://www.quantum-espresso.org/quote

     Parallel version (MPI), running on     1 processors

     MPI processes distributed on     1 nodes
     854 MiB available memory on the printing compute node when the environment starts

     Waiting for input...
     Reading input from standard input
Warning: card &CELL ignored
Warning: card / ignored

     Current dimensions of program PWSCF are:
     Max number of different atomic species (ntypx) = 10
     Max number of k-points (npk) =  40000
     Max angular momentum in pseudopotentials (lmaxx) =  4
     Message from routine find_sym:
     Not a group! Trying with lower acceptance parameter...
     Message from routine find_sym:
     Still not a group! symmetry disabled

     Subspace diagonalization in iterative solution of the eigenvalue problem:
     a serial algorithm will be used


     G-vector sticks info
     --------------------
     sticks:   dense  smooth     PW     G-vecs:    dense   smooth      PW
     Sum         583     583    187                 9185     9185    1639

     Using Slab Decomposition



     bravais-lattice index     =            0
     lattice parameter (alat)  =       7.7145  a.u.
     unit-cell volume          =     324.6508 (a.u.)^3
     number of atoms/cell      =            2
     number of atomic types    =            1
     number of electrons       =        28.00
     number of Kohn-Sham states=           14
     kinetic-energy cutoff     =      35.0000  Ry
     charge density cutoff     =     140.0000  Ry
     scf convergence threshold =      1.0E-07
     mixing beta               =       0.5000
     number of iterations used =            8  plain     mixing
     Exchange-correlation=  SLA  PZ   NOGX NOGC
                           (   1   1   0   0   0   0   0)

     celldm(1)=   7.714548  celldm(2)=   0.000000  celldm(3)=   0.000000
     celldm(4)=   0.000000  celldm(5)=   0.000000  celldm(6)=   0.000000

     crystal axes: (cart. coord. in units of alat)
               a(1) = (   0.000000   0.707107   0.707107 )  
               a(2) = (   0.707107   0.000000   0.707107 )  
               a(3) = (   0.707107   0.707107   0.000000 )  

     reciprocal axes: (cart. coord. in units 2 pi/alat)
               b(1) = ( -0.707107  0.707107  0.707107 )  
               b(2) = (  0.707107 -0.707107  0.707107 )  
               b(3) = (  0.707107  0.707107 -0.707107 )  


     PseudoPot. # 1 for Ge read from file:
     /home/bond/Software/QE/qe-7.4.1/pseudo/ge_lda_v1.4.uspp.F.UPF
     MD5 check sum: bf9d52b59cc8a669818bb2b52e0c2ba0
     Pseudo is Ultrasoft + core correction, Zval = 14.0
     Generated by new atomic code, or converted to UPF format
     Using radial grid of  873 points,  6 beta functions with: 
                l(1) =   0
                l(2) =   0
                l(3) =   1
                l(4) =   1
                l(5) =   2
                l(6) =   2
     Q(r) pseudized with  8 coefficients,  rinner =    1.400   1.400   1.400
                                                       1.400   1.400

     atomic species   valence    mass     pseudopotential
     Ge               14.00    72.63000     Ge( 1.00)

     No symmetry found



   Cartesian axes

     site n.     atom                  positions (alat units)
         1        Ge     tau(   1) = (   0.0000000   0.0000000   0.0000000  )
         2        Ge     tau(   2) = (   0.3535526   0.3535526   0.3535526  )

     number of k points=   504

     Number of k-points >= 100: set verbosity='high' to print them.

     Dense  grid:     9185 G-vectors     FFT dimensions: (  32,  32,  32)

     Estimated max dynamical RAM per process >     158.26 MB

     Check: negative core charge=   -0.000015

     Initial potential from superposition of free atoms

     starting charge      27.9986, renormalised to      28.0000
     Starting wfcs are   18 randomized atomic wfcs

     total cpu time spent up to now is        5.0 secs

     Self-consistent Calculation

     iteration #  1     ecut=    35.00 Ry     beta= 0.50
     Davidson diagonalization with overlap
     ethr =  1.00E-02,  avg # of iterations =  1.6

     Threshold (ethr) on eigenvalues was too large:
     Diagonalizing with lowered threshold

     Davidson diagonalization with overlap
     ethr =  1.04E-04,  avg # of iterations =  2.0

     total cpu time spent up to now is       22.8 secs

     total energy              =    -426.16563118 Ry
     estimated scf accuracy    <       0.03112228 Ry

     iteration #  2     ecut=    35.00 Ry     beta= 0.50
     Davidson diagonalization with overlap
     ethr =  1.11E-04,  avg # of iterations =  1.0

     total cpu time spent up to now is       31.0 secs

     total energy              =    -426.16443429 Ry
     estimated scf accuracy    <       0.00562653 Ry

     iteration #  3     ecut=    35.00 Ry     beta= 0.50
     Davidson diagonalization with overlap
     ethr =  2.01E-05,  avg # of iterations =  2.0

     total cpu time spent up to now is       40.4 secs

     total energy              =    -426.16483420 Ry
     estimated scf accuracy    <       0.00006139 Ry

     iteration #  4     ecut=    35.00 Ry     beta= 0.50
     Davidson diagonalization with overlap
     ethr =  2.19E-07,  avg # of iterations =  3.9

     total cpu time spent up to now is       52.6 secs

     total energy              =    -426.16485620 Ry
     estimated scf accuracy    <       0.00000378 Ry

     iteration #  5     ecut=    35.00 Ry     beta= 0.50
     Davidson diagonalization with overlap
     ethr =  1.35E-08,  avg # of iterations =  2.9

     total cpu time spent up to now is       64.0 secs

     End of self-consistent calculation

     Number of k-points >= 100: set verbosity='high' to print the bands.

     highest occupied level (ev):     7.3800

!    total energy              =    -426.16485709 Ry
     estimated scf accuracy    <       0.00000005 Ry

     The total energy is the sum of the following terms:
     one-electron contribution =    -285.67349996 Ry
     hartree contribution      =     167.52492628 Ry
     xc contribution           =    -114.46713678 Ry
     ewald contribution        =    -193.54914663 Ry

     convergence has been achieved in   5 iterations

     Forces acting on atoms (cartesian axes, Ry/au):

     atom    1 type  1   force =    -0.00008315   -0.00002406   -0.00026647
     atom    2 type  1   force =     0.00008315    0.00002406    0.00026647

     Total force =     0.000396     Total SCF correction =     0.000039


     Computing stress (Cartesian axis) and pressure

          total   stress  (Ry/bohr**3)                   (kbar)     P=      -59.02
  -0.00040182  -0.00000014  -0.00000001          -59.11       -0.02       -0.00
  -0.00000014  -0.00040149  -0.00000006           -0.02      -59.06       -0.01
  -0.00000001  -0.00000006  -0.00040034           -0.00       -0.01      -58.89

     Message from routine punch:
     Nothing written, as per user request (disk_io='none')

     init_run     :      4.81s CPU      4.93s WALL (       1 calls)
     electrons    :     58.04s CPU     59.00s WALL (       1 calls)
     forces       :      0.58s CPU      0.58s WALL (       1 calls)
     stress       :      3.12s CPU      3.15s WALL (       1 calls)

     Called by init_run:
     wfcinit      :      4.45s CPU      4.56s WALL (       1 calls)
     potinit      :      0.01s CPU      0.01s WALL (       1 calls)
     hinit0       :      0.27s CPU      0.28s WALL (       1 calls)

     Called by electrons:
     c_bands      :     49.20s CPU     50.01s WALL (       6 calls)
     sum_band     :      8.72s CPU      8.86s WALL (       6 calls)
     v_of_rho     :      0.01s CPU      0.01s WALL (       6 calls)
     newd         :      0.13s CPU      0.14s WALL (       6 calls)
     mix_rho      :      0.00s CPU      0.00s WALL (       6 calls)

     Called by c_bands:
     init_us_2    :      2.01s CPU      2.05s WALL (    7560 calls)
     cegterg      :     44.37s CPU     45.08s WALL (    3024 calls)

     Called by *egterg:
     cdiaghg      :      1.58s CPU      1.60s WALL (    9297 calls)
     h_psi        :     41.06s CPU     41.76s WALL (   10305 calls)
     s_psi        :      1.09s CPU      1.11s WALL (   10305 calls)
     g_psi        :      0.28s CPU      0.29s WALL (    6777 calls)

     Called by h_psi:
     h_psi:calbec :      1.32s CPU      1.34s WALL (   10305 calls)
     vloc_psi     :     38.33s CPU     38.99s WALL (   10305 calls)
     add_vuspsi   :      1.13s CPU      1.15s WALL (   10305 calls)

     General routines
     calbec       :      2.79s CPU      2.83s WALL (   21897 calls)
     fft          :      0.13s CPU      0.14s WALL (      33 calls)
     ffts         :      0.00s CPU      0.00s WALL (       6 calls)
     fftw         :     38.74s CPU     39.40s WALL (  267298 calls)

     Parallel routines

     PWSCF        :   1m 6.63s CPU   1m 7.75s WALL


   This run was terminated on:  21:48:16   8Oct2025            

=------------------------------------------------------------------------------=
   JOB DONE.
=------------------------------------------------------------------------------=
