
     Program PWSCF v.7.4.1 starts on 20Oct2025 at 18: 2:23 

     This program is part of the open-source Quantum ESPRESSO suite
     for quantum simulation of materials; please cite
         "P. Giannozzi et al., J. Phys.:Condens. Matter 21 395502 (2009);
         "P. Giannozzi et al., J. Phys.:Condens. Matter 29 465901 (2017);
         "P. Giannozzi et al., J. Chem. Phys. 152 154105 (2020);
          URL http://www.quantum-espresso.org", 
     in publications or presentations arising from this work. More details at
     http://www.quantum-espresso.org/quote

     Parallel version (MPI), running on     2 processors

     MPI processes distributed on     1 nodes
     294 MiB available memory on the printing compute node when the environment starts

     Waiting for input...
     Reading input from standard input

     Current dimensions of program PWSCF are:
     Max number of different atomic species (ntypx) = 10
     Max number of k-points (npk) =  40000
     Max angular momentum in pseudopotentials (lmaxx) =  4
     file Fe.pbe-nd-rrkjus.UPF: wavefunction(s)  4S renormalized
     Message from routine setup:
     using ibrav=0 with symmetry is DISCOURAGED, use correct ibrav instead

     R & G space division:  proc/nbgrp/npool/nimage =       2
     Subspace diagonalization in iterative solution of the eigenvalue problem:
     a serial algorithm will be used


     Parallelization info
     --------------------
     sticks:   dense  smooth     PW     G-vecs:    dense   smooth      PW
     Min         218      86     45                 2887      739     265
     Max         219      87     46                 2888      742     266
     Sum         437     173     91                 5775     1481     531

     Using Slab Decomposition



     bravais-lattice index     =            0
     lattice parameter (alat)  =       4.4187  a.u.
     unit-cell volume          =      66.4137 (a.u.)^3
     number of atoms/cell      =            1
     number of atomic types    =            1
     number of electrons       =         8.00
     number of Kohn-Sham states=            8
     kinetic-energy cutoff     =      30.0000  Ry
     charge density cutoff     =     300.0000  Ry
     scf convergence threshold =      1.0E-07
     mixing beta               =       0.5000
     number of iterations used =            8  plain     mixing
     energy convergence thresh.=      1.0E-04
     force convergence thresh. =      1.0E-03
     press convergence thresh. =      5.0E-01
     Exchange-correlation=  SLA  PW   PBE  PBE
                           (   1   4   3   4   0   0   0)
     nstep                     =           50


     celldm(1)=   4.418687  celldm(2)=   0.000000  celldm(3)=   0.000000
     celldm(4)=   0.000000  celldm(5)=   0.000000  celldm(6)=   0.000000

     crystal axes: (cart. coord. in units of alat)
               a(1) = (  -0.577350   0.577350   0.577350 )  
               a(2) = (   0.577350  -0.577350   0.577350 )  
               a(3) = (   0.577350   0.577350  -0.577350 )  

     reciprocal axes: (cart. coord. in units 2 pi/alat)
               b(1) = (  0.000000  0.866025  0.866025 )  
               b(2) = (  0.866025  0.000000  0.866025 )  
               b(3) = (  0.866025  0.866025  0.000000 )  


     PseudoPot. # 1 for Fe read from file:
     /home/bond/Software/QE/qe-7.4.1/pseudo/Fe.pbe-nd-rrkjus.UPF
     MD5 check sum: 398036227a04b607635f6f5e8dfd8242
     Pseudo is Ultrasoft + core correction, Zval =  8.0
     Generated by new atomic code, or converted to UPF format
     Using radial grid of  957 points,  6 beta functions with: 
                l(1) =   0
                l(2) =   0
                l(3) =   1
                l(4) =   1
                l(5) =   2
                l(6) =   2
     Q(r) pseudized with 0 coefficients 


     atomic species   valence    mass     pseudopotential
     Fe                8.00    55.84500     Fe( 1.00)

     Starting magnetic structure 
     atomic species   magnetization
     Fe              0.700

     48 Sym. Ops., with inversion, found



   Cartesian axes

     site n.     atom                  positions (alat units)
         1        Fe     tau(   1) = (   0.0000000   0.0000000   0.0000000  )

     number of k points=    72  Methfessel-Paxton smearing, width (Ry)=  0.0200
                       cart. coord. in units 2pi/alat
        k(    1) = (   0.0000000   0.0000000   0.0000000), wk =   0.0005787
        k(    2) = (   0.0721688   0.0721688   0.0000000), wk =   0.0069444
        k(    3) = (   0.1443376   0.1443376   0.0000000), wk =   0.0069444
        k(    4) = (   0.2165064   0.2165064   0.0000000), wk =   0.0069444
        k(    5) = (   0.2886751   0.2886751   0.0000000), wk =   0.0069444
        k(    6) = (   0.3608439   0.3608439   0.0000000), wk =   0.0069444
        k(    7) = (  -0.4330127  -0.4330127   0.0000000), wk =   0.0034722
        k(    8) = (   0.1443376   0.0721688   0.0721688), wk =   0.0138889
        k(    9) = (   0.2165064   0.1443376   0.0721688), wk =   0.0277778
        k(   10) = (   0.2886751   0.2165064   0.0721688), wk =   0.0277778
        k(   11) = (   0.3608439   0.2886751   0.0721688), wk =   0.0277778
        k(   12) = (   0.4330127   0.3608439   0.0721688), wk =   0.0277778
        k(   13) = (   0.2886751   0.1443376   0.1443376), wk =   0.0138889
        k(   14) = (   0.3608439   0.2165064   0.1443376), wk =   0.0277778
        k(   15) = (   0.4330127   0.2886751   0.1443376), wk =   0.0277778
        k(   16) = (   0.5051815   0.3608439   0.1443376), wk =   0.0138889
        k(   17) = (   0.4330127   0.2165064   0.2165064), wk =   0.0138889
        k(   18) = (   0.5051815   0.2886751   0.2165064), wk =   0.0277778
        k(   19) = (   0.5773503   0.2886751   0.2886751), wk =   0.0046296
        k(   20) = (   0.1443376   0.1443376   0.1443376), wk =   0.0046296
        k(   21) = (   0.2165064   0.2165064   0.1443376), wk =   0.0138889
        k(   22) = (   0.2886751   0.2886751   0.1443376), wk =   0.0138889
        k(   23) = (   0.3608439   0.3608439   0.1443376), wk =   0.0138889
        k(   24) = (   0.4330127   0.4330127   0.1443376), wk =   0.0069444
        k(   25) = (  -0.0000000  -0.0000000   0.1443376), wk =   0.0034722
        k(   26) = (   0.2886751   0.2165064   0.2165064), wk =   0.0138889
        k(   27) = (   0.3608439   0.2886751   0.2165064), wk =   0.0277778
        k(   28) = (   0.4330127   0.3608439   0.2165064), wk =   0.0277778
        k(   29) = (   0.0000000  -0.0721688   0.2165064), wk =   0.0138889
        k(   30) = (   0.4330127   0.2886751   0.2886751), wk =   0.0138889
        k(   31) = (   0.5051815   0.3608439   0.2886751), wk =   0.0138889
        k(   32) = (   0.0000000  -0.1443376   0.2886751), wk =   0.0138889
        k(   33) = (   0.0721688  -0.0721688   0.2886751), wk =   0.0138889
        k(   34) = (  -0.0000000  -0.2165064   0.3608439), wk =   0.0138889
        k(   35) = (   0.0721688  -0.1443376   0.3608439), wk =   0.0277778
        k(   36) = (   0.0000000  -0.2886751   0.4330127), wk =   0.0138889
        k(   37) = (   0.0721688  -0.2165064   0.4330127), wk =   0.0277778
        k(   38) = (   0.1443376  -0.1443376   0.4330127), wk =   0.0138889
        k(   39) = (  -0.8660254  -0.3608439  -0.3608439), wk =   0.0069444
        k(   40) = (  -0.7938566  -0.2886751  -0.3608439), wk =   0.0277778
        k(   41) = (  -0.7216878  -0.2165064  -0.3608439), wk =   0.0277778
        k(   42) = (  -0.7216878  -0.2886751  -0.2886751), wk =   0.0138889
        k(   43) = (  -0.6495191  -0.2165064  -0.2886751), wk =   0.0138889
        k(   44) = (   0.2886751   0.2886751   0.2886751), wk =   0.0046296
        k(   45) = (   0.3608439   0.3608439   0.2886751), wk =   0.0138889
        k(   46) = (   0.4330127   0.4330127   0.2886751), wk =   0.0069444
        k(   47) = (   0.0000000   0.0000000   0.2886751), wk =   0.0034722
        k(   48) = (   0.4330127   0.3608439   0.3608439), wk =   0.0138889
        k(   49) = (   0.0000000  -0.0721688   0.3608439), wk =   0.0138889
        k(   50) = (  -0.0000000  -0.1443376   0.4330127), wk =   0.0138889
        k(   51) = (   0.0721688  -0.0721688   0.4330127), wk =   0.0138889
        k(   52) = (   0.0000000  -0.2165064   0.5051815), wk =   0.0138889
        k(   53) = (   0.0721688  -0.1443376   0.5051815), wk =   0.0277778
        k(   54) = (  -0.8660254  -0.2886751  -0.2886751), wk =   0.0069444
        k(   55) = (  -0.7938566  -0.2165064  -0.2886751), wk =   0.0277778
        k(   56) = (  -0.7216878  -0.1443376  -0.2886751), wk =   0.0138889
        k(   57) = (  -0.7216878  -0.2165064  -0.2165064), wk =   0.0138889
        k(   58) = (   0.4330127   0.4330127   0.4330127), wk =   0.0011574
        k(   59) = (   0.0000000   0.0000000   0.4330127), wk =   0.0034722
        k(   60) = (  -0.0000000  -0.0721688   0.5051815), wk =   0.0138889
        k(   61) = (   0.0000000  -0.1443376   0.5773503), wk =   0.0138889
        k(   62) = (   0.0721688  -0.0721688   0.5773503), wk =   0.0138889
        k(   63) = (  -0.8660254  -0.2165064  -0.2165064), wk =   0.0069444
        k(   64) = (  -0.7938566  -0.1443376  -0.2165064), wk =   0.0277778
        k(   65) = (  -0.7216878  -0.1443376  -0.1443376), wk =   0.0046296
        k(   66) = (  -0.0000000  -0.0000000   0.5773503), wk =   0.0034722
        k(   67) = (   0.0000000  -0.0721688   0.6495191), wk =   0.0138889
        k(   68) = (  -0.8660254  -0.1443376  -0.1443376), wk =   0.0069444
        k(   69) = (  -0.7938566  -0.0721688  -0.1443376), wk =   0.0138889
        k(   70) = (   0.0000000   0.0000000   0.7216878), wk =   0.0034722
        k(   71) = (  -0.8660254  -0.0721688  -0.0721688), wk =   0.0069444
        k(   72) = (  -0.8660254  -0.8660254  -0.8660254), wk =   0.0005787

     Dense  grid:     5775 G-vectors     FFT dimensions: (  25,  25,  25)

     Smooth grid:     1481 G-vectors     FFT dimensions: (  15,  15,  15)

     Estimated max dynamical RAM per process >      16.29 MB

     Estimated total dynamical RAM >      32.58 MB

     Check: negative core charge=   -0.000001
     Generating pointlists ...
     new r_m :   0.4125 (alat units)  1.8227 (a.u.) for type    1

     Initial potential from superposition of free atoms

     starting charge       7.9994, renormalised to       8.0000
     Starting wfcs are    6 randomized atomic wfcs +    2 random wfcs

     total cpu time spent up to now is        0.5 secs

     Self-consistent Calculation

     iteration #  1     ecut=    30.00 Ry     beta= 0.50
     Davidson diagonalization with overlap
     ethr =  1.00E-02,  avg # of iterations =  4.4

     total cpu time spent up to now is        0.9 secs

     total energy              =     -55.66883109 Ry
     estimated scf accuracy    <       0.29513197 Ry

     total magnetization       =     2.86 Bohr mag/cell
     absolute magnetization    =     2.86 Bohr mag/cell

     iteration #  2     ecut=    30.00 Ry     beta= 0.50
     Davidson diagonalization with overlap
     ethr =  3.69E-03,  avg # of iterations =  1.6

     total cpu time spent up to now is        1.2 secs

     total energy              =     -55.75668406 Ry
     estimated scf accuracy    <       0.03423911 Ry

     total magnetization       =     2.66 Bohr mag/cell
     absolute magnetization    =     2.66 Bohr mag/cell

     iteration #  3     ecut=    30.00 Ry     beta= 0.50
     Davidson diagonalization with overlap
     ethr =  4.28E-04,  avg # of iterations =  1.2

     total cpu time spent up to now is        1.4 secs

     total energy              =     -55.77973094 Ry
     estimated scf accuracy    <       0.01217870 Ry

     total magnetization       =     2.45 Bohr mag/cell
     absolute magnetization    =     2.48 Bohr mag/cell

     iteration #  4     ecut=    30.00 Ry     beta= 0.50
     Davidson diagonalization with overlap
     ethr =  1.52E-04,  avg # of iterations =  1.4

     total cpu time spent up to now is        1.8 secs

     total energy              =     -55.78773100 Ry
     estimated scf accuracy    <       0.00060805 Ry

     total magnetization       =     2.10 Bohr mag/cell
     absolute magnetization    =     2.22 Bohr mag/cell

     iteration #  5     ecut=    30.00 Ry     beta= 0.50
     Davidson diagonalization with overlap
     ethr =  7.60E-06,  avg # of iterations =  5.8

     total cpu time spent up to now is        2.1 secs

     total energy              =     -55.78798324 Ry
     estimated scf accuracy    <       0.00028323 Ry

     total magnetization       =     2.09 Bohr mag/cell
     absolute magnetization    =     2.20 Bohr mag/cell

     iteration #  6     ecut=    30.00 Ry     beta= 0.50
     Davidson diagonalization with overlap
     ethr =  3.54E-06,  avg # of iterations =  2.2

     total cpu time spent up to now is        2.4 secs

     total energy              =     -55.78841689 Ry
     estimated scf accuracy    <       0.00003274 Ry

     total magnetization       =     2.03 Bohr mag/cell
     absolute magnetization    =     2.13 Bohr mag/cell

     iteration #  7     ecut=    30.00 Ry     beta= 0.50
     Davidson diagonalization with overlap
     ethr =  4.09E-07,  avg # of iterations =  2.9

     total cpu time spent up to now is        2.6 secs

     total energy              =     -55.78845857 Ry
     estimated scf accuracy    <       0.00006973 Ry

     total magnetization       =     2.03 Bohr mag/cell
     absolute magnetization    =     2.12 Bohr mag/cell

     iteration #  8     ecut=    30.00 Ry     beta= 0.50
     Davidson diagonalization with overlap
     ethr =  4.09E-07,  avg # of iterations =  1.4

     total cpu time spent up to now is        2.8 secs

     total energy              =     -55.78846453 Ry
     estimated scf accuracy    <       0.00000801 Ry

     total magnetization       =     2.03 Bohr mag/cell
     absolute magnetization    =     2.13 Bohr mag/cell

     iteration #  9     ecut=    30.00 Ry     beta= 0.50
     Davidson diagonalization with overlap
     ethr =  1.00E-07,  avg # of iterations =  2.7

     total cpu time spent up to now is        3.0 secs

     total energy              =     -55.78846958 Ry
     estimated scf accuracy    <       0.00000543 Ry

     total magnetization       =     2.04 Bohr mag/cell
     absolute magnetization    =     2.13 Bohr mag/cell

     iteration # 10     ecut=    30.00 Ry     beta= 0.50
     Davidson diagonalization with overlap
     ethr =  6.79E-08,  avg # of iterations =  1.6

     total cpu time spent up to now is        3.2 secs

     total energy              =     -55.78847153 Ry
     estimated scf accuracy    <       0.00000051 Ry

     total magnetization       =     2.03 Bohr mag/cell
     absolute magnetization    =     2.13 Bohr mag/cell

     iteration # 11     ecut=    30.00 Ry     beta= 0.50
     Davidson diagonalization with overlap
     ethr =  6.38E-09,  avg # of iterations =  3.3

     Magnetic moment per site  (integrated on atomic sphere of radius R)
     atom   1 (R=0.413)  charge=  6.3571  magn=  2.0640

     total cpu time spent up to now is        3.5 secs

     End of self-consistent calculation

     Number of k-points >= 100: set verbosity='high' to print the bands.

     the Fermi energy is    16.3056 ev

!    total energy              =     -55.78847182 Ry
     estimated scf accuracy    <          1.3E-09 Ry
     smearing contrib. (-TS)   =       0.00005048 Ry
     internal energy E=F+TS    =     -55.78852230 Ry

     The total energy is F=E-TS. E is the sum of the following terms:
     one-electron contribution =      10.65784737 Ry
     hartree contribution      =       5.74013034 Ry
     xc contribution           =     -26.53792148 Ry
     ewald contribution        =     -45.64857853 Ry

     total magnetization       =     2.03 Bohr mag/cell
     absolute magnetization    =     2.13 Bohr mag/cell

     convergence has been achieved in  11 iterations

     Forces acting on atoms (cartesian axes, Ry/au):

     atom    1 type  1   force =     0.00000000    0.00000000    0.00000000

     Total force =     0.000000     Total SCF correction =     0.000000


     Computing stress (Cartesian axis) and pressure

          total   stress  (Ry/bohr**3)                   (kbar)     P=      396.06
   0.00269235  -0.00000000  -0.00000000          396.06       -0.00       -0.00
  -0.00000000   0.00269235  -0.00000000           -0.00      396.06       -0.00
  -0.00000000  -0.00000000   0.00269235           -0.00       -0.00      396.06


     BFGS Geometry Optimization
     Energy error            =      3.2E-02 Ry
     Gradient error          =      0.0E+00 Ry/Bohr
     Cell gradient error     =      4.0E+02 kbar

     number of scf cycles    =   1
     number of bfgs steps    =   0

     enthalpy           new  =     -55.7884718171 Ry

     new trust radius        =       0.1097060537 bohr
     new conv_thr            =       0.0000001000 Ry

     new unit-cell volume =     80.74732 a.u.^3 (    11.96552 Ang^3 )
     density =      7.75000 g/cm^3

CELL_PARAMETERS (angstrom)
  -1.440866838   1.440866838   1.440866838
   1.440866838  -1.440866838   1.440866838
   1.440866838   1.440866838  -1.440866838

ATOMIC_POSITIONS (angstrom)
Fe               0.0000000000        0.0000000000        0.0000000000


     Message from routine punch:
     Nothing written, as per user request (disk_io='none')
     NEW-OLD atomic charge density approx. for the potential
     New effective cutoffs (rho, wfc):  260.92   26.33

     Check: negative core charge=   -0.000002
     Generating pointlists ...

     total cpu time spent up to now is        3.7 secs

     Self-consistent Calculation

     iteration #  1     ecut=    30.00 Ry     beta= 0.50
     Davidson diagonalization with overlap
     c_bands:  1 eigenvalues not converged
     ethr =  1.00E-06,  avg # of iterations =  7.0

     total cpu time spent up to now is        4.2 secs

     total energy              =     -55.79953089 Ry
     estimated scf accuracy    <       0.00248372 Ry

     total magnetization       =     2.23 Bohr mag/cell
     absolute magnetization    =     2.34 Bohr mag/cell

     iteration #  2     ecut=    30.00 Ry     beta= 0.50
     Davidson diagonalization with overlap
     ethr =  3.10E-05,  avg # of iterations =  1.0

     total cpu time spent up to now is        4.4 secs

     total energy              =     -55.80052742 Ry
     estimated scf accuracy    <       0.00145219 Ry

     total magnetization       =     2.29 Bohr mag/cell
     absolute magnetization    =     2.41 Bohr mag/cell

     iteration #  3     ecut=    30.00 Ry     beta= 0.50
     Davidson diagonalization with overlap
     ethr =  1.82E-05,  avg # of iterations =  1.2

     total cpu time spent up to now is        4.5 secs

     total energy              =     -55.80096288 Ry
     estimated scf accuracy    <       0.00044767 Ry

     total magnetization       =     2.33 Bohr mag/cell
     absolute magnetization    =     2.46 Bohr mag/cell

     iteration #  4     ecut=    30.00 Ry     beta= 0.50
     Davidson diagonalization with overlap
     ethr =  5.60E-06,  avg # of iterations =  1.9

     total cpu time spent up to now is        4.7 secs

     total energy              =     -55.80125742 Ry
     estimated scf accuracy    <       0.00004450 Ry

     total magnetization       =     2.40 Bohr mag/cell
     absolute magnetization    =     2.55 Bohr mag/cell

     iteration #  5     ecut=    30.00 Ry     beta= 0.50
     Davidson diagonalization with overlap
     ethr =  5.56E-07,  avg # of iterations =  2.4

     total cpu time spent up to now is        5.0 secs

     total energy              =     -55.80142370 Ry
     estimated scf accuracy    <       0.00000150 Ry

     total magnetization       =     2.44 Bohr mag/cell
     absolute magnetization    =     2.60 Bohr mag/cell

     iteration #  6     ecut=    30.00 Ry     beta= 0.50
     Davidson diagonalization with overlap
     ethr =  1.88E-08,  avg # of iterations =  3.2

     total cpu time spent up to now is        5.2 secs

     total energy              =     -55.80142836 Ry
     estimated scf accuracy    <       0.00000021 Ry

     total magnetization       =     2.44 Bohr mag/cell
     absolute magnetization    =     2.60 Bohr mag/cell

     iteration #  7     ecut=    30.00 Ry     beta= 0.50
     Davidson diagonalization with overlap
     ethr =  2.61E-09,  avg # of iterations =  4.0

     Magnetic moment per site  (integrated on atomic sphere of radius R)
     atom   1 (R=0.413)  charge=  6.1560  magn=  2.4961

     total cpu time spent up to now is        5.5 secs

     End of self-consistent calculation

     Number of k-points >= 100: set verbosity='high' to print the bands.

     the Fermi energy is    12.6780 ev

!    total energy              =     -55.80143113 Ry
     estimated scf accuracy    <       0.00000002 Ry
     smearing contrib. (-TS)   =       0.00023310 Ry
     internal energy E=F+TS    =     -55.80166423 Ry

     The total energy is F=E-TS. E is the sum of the following terms:
     one-electron contribution =       6.61855778 Ry
     hartree contribution      =       6.79302531 Ry
     xc contribution           =     -26.44345113 Ry
     ewald contribution        =     -42.76979619 Ry

     total magnetization       =     2.44 Bohr mag/cell
     absolute magnetization    =     2.60 Bohr mag/cell

     convergence has been achieved in   7 iterations

     Forces acting on atoms (cartesian axes, Ry/au):

     atom    1 type  1   force =     0.00000000    0.00000000    0.00000000

     Total force =     0.000000     Total SCF correction =     0.000000


     Computing stress (Cartesian axis) and pressure

          total   stress  (Ry/bohr**3)                   (kbar)     P=      -47.76
  -0.00032469  -0.00000000  -0.00000000          -47.76       -0.00       -0.00
  -0.00000000  -0.00032469  -0.00000000           -0.00      -47.76       -0.00
  -0.00000000  -0.00000000  -0.00032469           -0.00       -0.00      -47.76

     Energy error            =      1.3E-02 Ry
     Gradient error          =      0.0E+00 Ry/Bohr
     Cell gradient error     =      4.8E+01 kbar

     number of scf cycles    =   2
     number of bfgs steps    =   1

     enthalpy           old  =     -55.7884718171 Ry
     enthalpy           new  =     -55.8014311307 Ry

     CASE: enthalpy          _new < enthalpy          _old

     new trust radius        =       0.0136896394 bohr
     new conv_thr            =       0.0000000010 Ry

     new unit-cell volume =     78.91613 a.u.^3 (    11.69416 Ang^3 )
     density =      7.92984 g/cm^3

CELL_PARAMETERS (angstrom)
  -1.429891402   1.429891402   1.429891402
   1.429891402  -1.429891402   1.429891402
   1.429891402   1.429891402  -1.429891402

ATOMIC_POSITIONS (angstrom)
Fe               0.0000000000        0.0000000000        0.0000000000


     Message from routine punch:
     Nothing written, as per user request (disk_io='none')
     NEW-OLD atomic charge density approx. for the potential
     New effective cutoffs (rho, wfc):  264.94   26.73

     Check: negative core charge=   -0.000003
     Generating pointlists ...

     total cpu time spent up to now is        5.7 secs

     Self-consistent Calculation

     iteration #  1     ecut=    30.00 Ry     beta= 0.50
     Davidson diagonalization with overlap
     ethr =  1.00E-06,  avg # of iterations =  4.2

     total cpu time spent up to now is        6.0 secs

     total energy              =     -55.80180536 Ry
     estimated scf accuracy    <       0.00005133 Ry

     total magnetization       =     2.41 Bohr mag/cell
     absolute magnetization    =     2.57 Bohr mag/cell

     iteration #  2     ecut=    30.00 Ry     beta= 0.50
     Davidson diagonalization with overlap
     ethr =  6.42E-07,  avg # of iterations =  1.0

     total cpu time spent up to now is        6.2 secs

     total energy              =     -55.80182062 Ry
     estimated scf accuracy    <       0.00002801 Ry

     total magnetization       =     2.40 Bohr mag/cell
     absolute magnetization    =     2.56 Bohr mag/cell

     iteration #  3     ecut=    30.00 Ry     beta= 0.50
     Davidson diagonalization with overlap
     ethr =  3.50E-07,  avg # of iterations =  1.5

     total cpu time spent up to now is        6.4 secs

     total energy              =     -55.80184985 Ry
     estimated scf accuracy    <       0.00000252 Ry

     total magnetization       =     2.38 Bohr mag/cell
     absolute magnetization    =     2.54 Bohr mag/cell

     iteration #  4     ecut=    30.00 Ry     beta= 0.50
     Davidson diagonalization with overlap
     ethr =  3.15E-08,  avg # of iterations =  1.6

     total cpu time spent up to now is        6.6 secs

     total energy              =     -55.80184993 Ry
     estimated scf accuracy    <       0.00000103 Ry

     total magnetization       =     2.38 Bohr mag/cell
     absolute magnetization    =     2.53 Bohr mag/cell

     iteration #  5     ecut=    30.00 Ry     beta= 0.50
     Davidson diagonalization with overlap
     ethr =  1.28E-08,  avg # of iterations =  2.2

     total cpu time spent up to now is        6.8 secs

     total energy              =     -55.80185301 Ry
     estimated scf accuracy    <       0.00000002 Ry

     total magnetization       =     2.38 Bohr mag/cell
     absolute magnetization    =     2.53 Bohr mag/cell

     iteration #  6     ecut=    30.00 Ry     beta= 0.50
     Davidson diagonalization with overlap
     ethr =  2.81E-10,  avg # of iterations =  4.6

     total cpu time spent up to now is        7.1 secs

     total energy              =     -55.80185311 Ry
     estimated scf accuracy    <          5.2E-09 Ry

     total magnetization       =     2.38 Bohr mag/cell
     absolute magnetization    =     2.53 Bohr mag/cell

     iteration #  7     ecut=    30.00 Ry     beta= 0.50
     Davidson diagonalization with overlap
     ethr =  6.54E-11,  avg # of iterations =  3.2

     Magnetic moment per site  (integrated on atomic sphere of radius R)
     atom   1 (R=0.413)  charge=  6.1754  magn=  2.4274

     total cpu time spent up to now is        7.4 secs

     End of self-consistent calculation

     Number of k-points >= 100: set verbosity='high' to print the bands.

     the Fermi energy is    13.0495 ev

!    total energy              =     -55.80185316 Ry
     estimated scf accuracy    <          4.9E-10 Ry
     smearing contrib. (-TS)   =       0.00026330 Ry
     internal energy E=F+TS    =     -55.80211645 Ry

     The total energy is F=E-TS. E is the sum of the following terms:
     one-electron contribution =       7.08111216 Ry
     hartree contribution      =       6.66379317 Ry
     xc contribution           =     -26.44893690 Ry
     ewald contribution        =     -43.09808488 Ry

     total magnetization       =     2.38 Bohr mag/cell
     absolute magnetization    =     2.53 Bohr mag/cell

     convergence has been achieved in   7 iterations

     Forces acting on atoms (cartesian axes, Ry/au):

     atom    1 type  1   force =     0.00000000    0.00000000    0.00000000

     Total force =     0.000000     Total SCF correction =     0.000000


     Computing stress (Cartesian axis) and pressure

          total   stress  (Ry/bohr**3)                   (kbar)     P=      -20.06
  -0.00013639   0.00000000   0.00000000          -20.06        0.00        0.00
   0.00000000  -0.00013639   0.00000000            0.00      -20.06        0.00
   0.00000000   0.00000000  -0.00013639            0.00        0.00      -20.06

     Energy error            =      4.2E-04 Ry
     Gradient error          =      0.0E+00 Ry/Bohr
     Cell gradient error     =      2.0E+01 kbar

     number of scf cycles    =   3
     number of bfgs steps    =   2

     enthalpy           old  =     -55.8014311307 Ry
     enthalpy           new  =     -55.8018531585 Ry

     CASE: enthalpy          _new < enthalpy          _old

     new trust radius        =       0.0096214825 bohr
     new conv_thr            =       0.0000000010 Ry

     new unit-cell volume =     77.64097 a.u.^3 (    11.50521 Ang^3 )
     density =      8.06007 g/cm^3

CELL_PARAMETERS (angstrom)
  -1.422147993   1.422147993   1.422147993
   1.422147993  -1.422147993   1.422147993
   1.422147993   1.422147993  -1.422147993

ATOMIC_POSITIONS (angstrom)
Fe               0.0000000000        0.0000000000        0.0000000000


     Message from routine punch:
     Nothing written, as per user request (disk_io='none')
     NEW-OLD atomic charge density approx. for the potential
     New effective cutoffs (rho, wfc):  267.84   27.03

     Check: negative core charge=   -0.000003
     Generating pointlists ...

     total cpu time spent up to now is        7.6 secs

     Self-consistent Calculation

     iteration #  1     ecut=    30.00 Ry     beta= 0.50
     Davidson diagonalization with overlap
     ethr =  1.00E-06,  avg # of iterations =  3.9

     total cpu time spent up to now is        7.9 secs

     total energy              =     -55.80190424 Ry
     estimated scf accuracy    <       0.00002131 Ry

     total magnetization       =     2.36 Bohr mag/cell
     absolute magnetization    =     2.51 Bohr mag/cell

     iteration #  2     ecut=    30.00 Ry     beta= 0.50
     Davidson diagonalization with overlap
     ethr =  2.66E-07,  avg # of iterations =  1.0

     total cpu time spent up to now is        8.1 secs

     total energy              =     -55.80191101 Ry
     estimated scf accuracy    <       0.00001087 Ry

     total magnetization       =     2.35 Bohr mag/cell
     absolute magnetization    =     2.50 Bohr mag/cell

     iteration #  3     ecut=    30.00 Ry     beta= 0.50
     Davidson diagonalization with overlap
     ethr =  1.36E-07,  avg # of iterations =  1.5

     total cpu time spent up to now is        8.3 secs

     total energy              =     -55.80191910 Ry
     estimated scf accuracy    <       0.00000106 Ry

     total magnetization       =     2.34 Bohr mag/cell
     absolute magnetization    =     2.49 Bohr mag/cell

     iteration #  4     ecut=    30.00 Ry     beta= 0.50
     Davidson diagonalization with overlap
     ethr =  1.32E-08,  avg # of iterations =  1.4

     total cpu time spent up to now is        8.5 secs

     total energy              =     -55.80191940 Ry
     estimated scf accuracy    <       0.00000027 Ry

     total magnetization       =     2.34 Bohr mag/cell
     absolute magnetization    =     2.49 Bohr mag/cell

     iteration #  5     ecut=    30.00 Ry     beta= 0.50
     Davidson diagonalization with overlap
     ethr =  3.40E-09,  avg # of iterations =  2.2

     total cpu time spent up to now is        8.7 secs

     total energy              =     -55.80191992 Ry
     estimated scf accuracy    <       0.00000004 Ry

     total magnetization       =     2.34 Bohr mag/cell
     absolute magnetization    =     2.49 Bohr mag/cell

     iteration #  6     ecut=    30.00 Ry     beta= 0.50
     Davidson diagonalization with overlap
     ethr =  4.60E-10,  avg # of iterations =  3.0

     total cpu time spent up to now is        8.9 secs

     total energy              =     -55.80191995 Ry
     estimated scf accuracy    <       0.00000002 Ry

     total magnetization       =     2.34 Bohr mag/cell
     absolute magnetization    =     2.49 Bohr mag/cell

     iteration #  7     ecut=    30.00 Ry     beta= 0.50
     Davidson diagonalization with overlap
     ethr =  2.00E-10,  avg # of iterations =  1.8

     Magnetic moment per site  (integrated on atomic sphere of radius R)
     atom   1 (R=0.413)  charge=  6.1899  magn=  2.3904

     total cpu time spent up to now is        9.1 secs

     End of self-consistent calculation

     Number of k-points >= 100: set verbosity='high' to print the bands.

     the Fermi energy is    13.3325 ev

!    total energy              =     -55.80191996 Ry
     estimated scf accuracy    <          9.6E-10 Ry
     smearing contrib. (-TS)   =       0.00027443 Ry
     internal energy E=F+TS    =     -55.80219439 Ry

     The total energy is F=E-TS. E is the sum of the following terms:
     one-electron contribution =       7.41247960 Ry
     hartree contribution      =       6.57284924 Ry
     xc contribution           =     -26.45477495 Ry
     ewald contribution        =     -43.33274828 Ry

     total magnetization       =     2.34 Bohr mag/cell
     absolute magnetization    =     2.49 Bohr mag/cell

     convergence has been achieved in   7 iterations

     Forces acting on atoms (cartesian axes, Ry/au):

     atom    1 type  1   force =     0.00000000    0.00000000    0.00000000

     Total force =     0.000000     Total SCF correction =     0.000000


     Computing stress (Cartesian axis) and pressure

          total   stress  (Ry/bohr**3)                   (kbar)     P=        4.57
   0.00003108  -0.00000000  -0.00000000            4.57       -0.00       -0.00
  -0.00000000   0.00003108  -0.00000000           -0.00        4.57       -0.00
  -0.00000000  -0.00000000   0.00003108           -0.00       -0.00        4.57

     Energy error            =      6.7E-05 Ry
     Gradient error          =      0.0E+00 Ry/Bohr
     Cell gradient error     =      4.6E+00 kbar

     number of scf cycles    =   4
     number of bfgs steps    =   3

     enthalpy           old  =     -55.8018531585 Ry
     enthalpy           new  =     -55.8019199624 Ry

     CASE: enthalpy          _new < enthalpy          _old

     new trust radius        =       0.0017653454 bohr
     new conv_thr            =       0.0000000010 Ry

     new unit-cell volume =     77.87453 a.u.^3 (    11.53982 Ang^3 )
     density =      8.03590 g/cm^3

CELL_PARAMETERS (angstrom)
  -1.423572613   1.423572613   1.423572613
   1.423572613  -1.423572613   1.423572613
   1.423572613   1.423572613  -1.423572613

ATOMIC_POSITIONS (angstrom)
Fe               0.0000000000        0.0000000000        0.0000000000


     Message from routine punch:
     Nothing written, as per user request (disk_io='none')
     NEW-OLD atomic charge density approx. for the potential
     New effective cutoffs (rho, wfc):  267.30   26.97

     Check: negative core charge=   -0.000003
     Generating pointlists ...

     total cpu time spent up to now is        9.3 secs

     Self-consistent Calculation

     iteration #  1     ecut=    30.00 Ry     beta= 0.50
     Davidson diagonalization with overlap
     ethr =  1.00E-06,  avg # of iterations =  2.5

     Threshold (ethr) on eigenvalues was too large:
     Diagonalizing with lowered threshold

     Davidson diagonalization with overlap
     ethr =  8.00E-09,  avg # of iterations =  2.0

     total cpu time spent up to now is        9.8 secs

     total energy              =     -55.80192383 Ry
     estimated scf accuracy    <       0.00000064 Ry

     total magnetization       =     2.34 Bohr mag/cell
     absolute magnetization    =     2.49 Bohr mag/cell

     iteration #  2     ecut=    30.00 Ry     beta= 0.50
     Davidson diagonalization with overlap
     ethr =  8.04E-09,  avg # of iterations =  1.0

     total cpu time spent up to now is       10.0 secs

     total energy              =     -55.80192404 Ry
     estimated scf accuracy    <       0.00000029 Ry

     total magnetization       =     2.34 Bohr mag/cell
     absolute magnetization    =     2.49 Bohr mag/cell

     iteration #  3     ecut=    30.00 Ry     beta= 0.50
     Davidson diagonalization with overlap
     ethr =  3.60E-09,  avg # of iterations =  1.4

     total cpu time spent up to now is       10.2 secs

     total energy              =     -55.80192422 Ry
     estimated scf accuracy    <       0.00000003 Ry

     total magnetization       =     2.35 Bohr mag/cell
     absolute magnetization    =     2.49 Bohr mag/cell

     iteration #  4     ecut=    30.00 Ry     beta= 0.50
     Davidson diagonalization with overlap
     ethr =  3.71E-10,  avg # of iterations =  1.9

     total cpu time spent up to now is       10.4 secs

     total energy              =     -55.80192424 Ry
     estimated scf accuracy    <          7.4E-09 Ry

     total magnetization       =     2.35 Bohr mag/cell
     absolute magnetization    =     2.49 Bohr mag/cell

     iteration #  5     ecut=    30.00 Ry     beta= 0.50
     Davidson diagonalization with overlap
     ethr =  9.26E-11,  avg # of iterations =  2.3

     Magnetic moment per site  (integrated on atomic sphere of radius R)
     atom   1 (R=0.413)  charge=  6.1872  magn=  2.3964

     total cpu time spent up to now is       10.6 secs

     End of self-consistent calculation

     Number of k-points >= 100: set verbosity='high' to print the bands.

     the Fermi energy is    13.2791 ev

!    total energy              =     -55.80192425 Ry
     estimated scf accuracy    <          7.3E-10 Ry
     smearing contrib. (-TS)   =       0.00027492 Ry
     internal energy E=F+TS    =     -55.80219917 Ry

     The total energy is F=E-TS. E is the sum of the following terms:
     one-electron contribution =       7.35111084 Ry
     hartree contribution      =       6.58971223 Ry
     xc contribution           =     -26.45363859 Ry
     ewald contribution        =     -43.28938365 Ry

     total magnetization       =     2.35 Bohr mag/cell
     absolute magnetization    =     2.49 Bohr mag/cell

     convergence has been achieved in   5 iterations

     Forces acting on atoms (cartesian axes, Ry/au):

     atom    1 type  1   force =     0.00000000    0.00000000    0.00000000

     Total force =     0.000000     Total SCF correction =     0.000000


     Computing stress (Cartesian axis) and pressure

          total   stress  (Ry/bohr**3)                   (kbar)     P=        0.73
   0.00000495   0.00000000   0.00000000            0.73        0.00        0.00
   0.00000000   0.00000495   0.00000000            0.00        0.73        0.00
   0.00000000  -0.00000000   0.00000495            0.00       -0.00        0.73

     Energy error            =      4.3E-06 Ry
     Gradient error          =      0.0E+00 Ry/Bohr
     Cell gradient error     =      7.3E-01 kbar

     number of scf cycles    =   5
     number of bfgs steps    =   4

     enthalpy           old  =     -55.8019199624 Ry
     enthalpy           new  =     -55.8019242506 Ry

     CASE: enthalpy          _new < enthalpy          _old

     new trust radius        =       0.0003354089 bohr
     new conv_thr            =       0.0000000010 Ry

     new unit-cell volume =     77.91894 a.u.^3 (    11.54640 Ang^3 )
     density =      8.03132 g/cm^3

CELL_PARAMETERS (angstrom)
  -1.423843150   1.423843150   1.423843150
   1.423843150  -1.423843150   1.423843150
   1.423843150   1.423843150  -1.423843150

ATOMIC_POSITIONS (angstrom)
Fe               0.0000000000        0.0000000000        0.0000000000


     Message from routine punch:
     Nothing written, as per user request (disk_io='none')
     NEW-OLD atomic charge density approx. for the potential
     New effective cutoffs (rho, wfc):  267.20   26.96

     Check: negative core charge=   -0.000003
     Generating pointlists ...

     total cpu time spent up to now is       10.8 secs

     Self-consistent Calculation

     iteration #  1     ecut=    30.00 Ry     beta= 0.50
     Davidson diagonalization with overlap
     ethr =  1.00E-06,  avg # of iterations =  2.0

     Threshold (ethr) on eigenvalues was too large:
     Diagonalizing with lowered threshold

     Davidson diagonalization with overlap
     ethr =  3.09E-10,  avg # of iterations =  2.2

     total cpu time spent up to now is       11.2 secs

     total energy              =     -55.80192416 Ry
     estimated scf accuracy    <       0.00000002 Ry

     total magnetization       =     2.35 Bohr mag/cell
     absolute magnetization    =     2.49 Bohr mag/cell

     iteration #  2     ecut=    30.00 Ry     beta= 0.50
     Davidson diagonalization with overlap
     ethr =  2.95E-10,  avg # of iterations =  1.1

     total cpu time spent up to now is       11.4 secs

     total energy              =     -55.80192417 Ry
     estimated scf accuracy    <       0.00000001 Ry

     total magnetization       =     2.35 Bohr mag/cell
     absolute magnetization    =     2.49 Bohr mag/cell

     iteration #  3     ecut=    30.00 Ry     beta= 0.50
     Davidson diagonalization with overlap
     ethr =  1.86E-10,  avg # of iterations =  1.0

     total cpu time spent up to now is       11.6 secs

     total energy              =     -55.80192417 Ry
     estimated scf accuracy    <          5.9E-09 Ry

     total magnetization       =     2.35 Bohr mag/cell
     absolute magnetization    =     2.49 Bohr mag/cell

     iteration #  4     ecut=    30.00 Ry     beta= 0.50
     Davidson diagonalization with overlap
     ethr =  7.44E-11,  avg # of iterations =  1.7

     Magnetic moment per site  (integrated on atomic sphere of radius R)
     atom   1 (R=0.413)  charge=  6.1866  magn=  2.3975

     total cpu time spent up to now is       11.8 secs

     End of self-consistent calculation

     Number of k-points >= 100: set verbosity='high' to print the bands.

     the Fermi energy is    13.2692 ev

!    total energy              =     -55.80192418 Ry
     estimated scf accuracy    <          3.3E-10 Ry
     smearing contrib. (-TS)   =       0.00027483 Ry
     internal energy E=F+TS    =     -55.80219901 Ry

     The total energy is F=E-TS. E is the sum of the following terms:
     one-electron contribution =       7.33953172 Ry
     hartree contribution      =       6.59279292 Ry
     xc contribution           =     -26.45336518 Ry
     ewald contribution        =     -43.28115847 Ry

     total magnetization       =     2.35 Bohr mag/cell
     absolute magnetization    =     2.49 Bohr mag/cell

     convergence has been achieved in   4 iterations

     Forces acting on atoms (cartesian axes, Ry/au):

     atom    1 type  1   force =     0.00000000    0.00000000    0.00000000

     Total force =     0.000000     Total SCF correction =     0.000000


     Computing stress (Cartesian axis) and pressure

          total   stress  (Ry/bohr**3)                   (kbar)     P=       -0.67
  -0.00000458  -0.00000000  -0.00000000           -0.67       -0.00       -0.00
  -0.00000000  -0.00000458  -0.00000000           -0.00       -0.67       -0.00
  -0.00000000  -0.00000000  -0.00000458           -0.00       -0.00       -0.67

     Energy error            =      7.2E-08 Ry
     Gradient error          =      0.0E+00 Ry/Bohr
     Cell gradient error     =      6.7E-01 kbar

     number of scf cycles    =   6
     number of bfgs steps    =   5

     enthalpy           old  =     -55.8019242506 Ry
     enthalpy           new  =     -55.8019241788 Ry

     CASE: enthalpy          _new > enthalpy          _old

     new trust radius        =       0.0001264183 bohr
     new conv_thr            =       0.0000000010 Ry

     new unit-cell volume =     77.89127 a.u.^3 (    11.54230 Ang^3 )
     density =      8.03417 g/cm^3

CELL_PARAMETERS (angstrom)
  -1.423674571   1.423674571   1.423674571
   1.423674571  -1.423674571   1.423674571
   1.423674571   1.423674571  -1.423674571

ATOMIC_POSITIONS (angstrom)
Fe               0.0000000000        0.0000000000        0.0000000000


     Message from routine punch:
     Nothing written, as per user request (disk_io='none')
     NEW-OLD atomic charge density approx. for the potential
     New effective cutoffs (rho, wfc):  267.26   26.97

     Check: negative core charge=   -0.000003
     Generating pointlists ...

     total cpu time spent up to now is       12.0 secs

     Self-consistent Calculation

     iteration #  1     ecut=    30.00 Ry     beta= 0.50
     Davidson diagonalization with overlap
     ethr =  1.00E-06,  avg # of iterations =  2.0

     Threshold (ethr) on eigenvalues was too large:
     Diagonalizing with lowered threshold

     Davidson diagonalization with overlap
     ethr =  1.09E-10,  avg # of iterations =  2.3

     total cpu time spent up to now is       12.5 secs

     total energy              =     -55.80192425 Ry
     estimated scf accuracy    <          7.7E-09 Ry

     total magnetization       =     2.35 Bohr mag/cell
     absolute magnetization    =     2.49 Bohr mag/cell

     iteration #  2     ecut=    30.00 Ry     beta= 0.50
     Davidson diagonalization with overlap
     ethr =  9.63E-11,  avg # of iterations =  1.0

     total cpu time spent up to now is       12.6 secs

     total energy              =     -55.80192425 Ry
     estimated scf accuracy    <          3.4E-09 Ry

     total magnetization       =     2.35 Bohr mag/cell
     absolute magnetization    =     2.49 Bohr mag/cell

     iteration #  3     ecut=    30.00 Ry     beta= 0.50
     Davidson diagonalization with overlap
     ethr =  4.31E-11,  avg # of iterations =  1.5

     Magnetic moment per site  (integrated on atomic sphere of radius R)
     atom   1 (R=0.413)  charge=  6.1870  magn=  2.3969

     total cpu time spent up to now is       12.8 secs

     End of self-consistent calculation

     Number of k-points >= 100: set verbosity='high' to print the bands.

     the Fermi energy is    13.2754 ev

!    total energy              =     -55.80192426 Ry
     estimated scf accuracy    <          2.2E-10 Ry
     smearing contrib. (-TS)   =       0.00027477 Ry
     internal energy E=F+TS    =     -55.80219903 Ry

     The total energy is F=E-TS. E is the sum of the following terms:
     one-electron contribution =       7.34679513 Ry
     hartree contribution      =       6.59080938 Ry
     xc contribution           =     -26.45352010 Ry
     ewald contribution        =     -43.28628344 Ry

     total magnetization       =     2.35 Bohr mag/cell
     absolute magnetization    =     2.49 Bohr mag/cell

     convergence has been achieved in   3 iterations

     Forces acting on atoms (cartesian axes, Ry/au):

     atom    1 type  1   force =     0.00000000    0.00000000    0.00000000

     Total force =     0.000000     Total SCF correction =     0.000000


     Computing stress (Cartesian axis) and pressure

          total   stress  (Ry/bohr**3)                   (kbar)     P=       -0.20
  -0.00000134  -0.00000000  -0.00000000           -0.20       -0.00       -0.00
   0.00000000  -0.00000134  -0.00000000            0.00       -0.20       -0.00
  -0.00000000  -0.00000000  -0.00000134           -0.00       -0.00       -0.20

     Energy error            =      6.0E-09 Ry
     Gradient error          =      0.0E+00 Ry/Bohr
     Cell gradient error     =      2.0E-01 kbar

     bfgs converged in   7 scf cycles and   5 bfgs steps
     (criteria: energy <  1.0E-04 Ry, force <  1.0E-03 Ry/Bohr, cell <  5.0E-01 kbar)

     End of BFGS Geometry Optimization

     Final enthalpy           =     -55.8019242567 Ry

     File /home/bond/Work/Lab4/1A/Fe_bcc_nk_12_relax/pwscf.bfgs deleted, as requested
Begin final coordinates
     new unit-cell volume =     77.89127 a.u.^3 (    11.54230 Ang^3 )
     density =      8.03417 g/cm^3

CELL_PARAMETERS (angstrom)
  -1.423674571   1.423674571   1.423674571
   1.423674571  -1.423674571   1.423674571
   1.423674571   1.423674571  -1.423674571

ATOMIC_POSITIONS (angstrom)
Fe               0.0000000000        0.0000000000        0.0000000000
End final coordinates


     Message from routine punch:
     Nothing written, as per user request (disk_io='none')

     Final scf calculation at the relaxed structure.
     The G-vectors are recalculated for the final unit cell
     Results may differ from those at the preceding step.

     Parallelization info
     --------------------
     sticks:   dense  smooth     PW     G-vecs:    dense   smooth      PW
     Min         241     100     45                 3408      872     277
     Max         242     101     46                 3411      873     278
     Sum         483     201     91                 6819     1745     555

     Using Slab Decomposition



     bravais-lattice index     =            0
     lattice parameter (alat)  =       4.4187  a.u.
     unit-cell volume          =      77.8913 (a.u.)^3
     number of atoms/cell      =            1
     number of atomic types    =            1
     number of electrons       =         8.00
     number of Kohn-Sham states=            8
     kinetic-energy cutoff     =      30.0000  Ry
     charge density cutoff     =     300.0000  Ry
     scf convergence threshold =      1.0E-09
     mixing beta               =       0.5000
     number of iterations used =            8  plain     mixing
     press convergence thresh. =      5.0E-01
     Exchange-correlation=  SLA  PW   PBE  PBE
                           (   1   4   3   4   0   0   0)

     celldm(1)=   4.418687  celldm(2)=   0.000000  celldm(3)=   0.000000
     celldm(4)=   0.000000  celldm(5)=   0.000000  celldm(6)=   0.000000

     crystal axes: (cart. coord. in units of alat)
               a(1) = (  -0.608858   0.608858   0.608858 )  
               a(2) = (   0.608858  -0.608858   0.608858 )  
               a(3) = (   0.608858   0.608858  -0.608858 )  

     reciprocal axes: (cart. coord. in units 2 pi/alat)
               b(1) = (  0.000000  0.821209  0.821209 )  
               b(2) = (  0.821209  0.000000  0.821209 )  
               b(3) = (  0.821209  0.821209  0.000000 )  


     PseudoPot. # 1 for Fe read from file:
     /home/bond/Software/QE/qe-7.4.1/pseudo/Fe.pbe-nd-rrkjus.UPF
     MD5 check sum: 398036227a04b607635f6f5e8dfd8242
     Pseudo is Ultrasoft + core correction, Zval =  8.0
     Generated by new atomic code, or converted to UPF format
     Using radial grid of  957 points,  6 beta functions with: 
                l(1) =   0
                l(2) =   0
                l(3) =   1
                l(4) =   1
                l(5) =   2
                l(6) =   2
     Q(r) pseudized with 0 coefficients 


     atomic species   valence    mass     pseudopotential
     Fe                8.00    55.84500     Fe( 1.00)

     Starting magnetic structure 
     atomic species   magnetization
     Fe              0.387

     48 Sym. Ops., with inversion, found



   Cartesian axes

     site n.     atom                  positions (alat units)
         1        Fe     tau(   1) = (   0.0000000   0.0000000   0.0000000  )

     number of k points=    72  Methfessel-Paxton smearing, width (Ry)=  0.0200
                       cart. coord. in units 2pi/alat
        k(    1) = (   0.0000000   0.0000000   0.0000000), wk =   0.0005787
        k(    2) = (   0.0684341   0.0684341   0.0000000), wk =   0.0069444
        k(    3) = (   0.1368682   0.1368682   0.0000000), wk =   0.0069444
        k(    4) = (   0.2053022   0.2053022   0.0000000), wk =   0.0069444
        k(    5) = (   0.2737363   0.2737363   0.0000000), wk =   0.0069444
        k(    6) = (   0.3421704   0.3421704   0.0000000), wk =   0.0069444
        k(    7) = (  -0.4106045  -0.4106045  -0.0000000), wk =   0.0034722
        k(    8) = (   0.1368682   0.0684341   0.0684341), wk =   0.0138889
        k(    9) = (   0.2053022   0.1368682   0.0684341), wk =   0.0277778
        k(   10) = (   0.2737363   0.2053022   0.0684341), wk =   0.0277778
        k(   11) = (   0.3421704   0.2737363   0.0684341), wk =   0.0277778
        k(   12) = (   0.4106045   0.3421704   0.0684341), wk =   0.0277778
        k(   13) = (   0.2737363   0.1368682   0.1368682), wk =   0.0138889
        k(   14) = (   0.3421704   0.2053022   0.1368682), wk =   0.0277778
        k(   15) = (   0.4106045   0.2737363   0.1368682), wk =   0.0277778
        k(   16) = (   0.4790386   0.3421704   0.1368682), wk =   0.0138889
        k(   17) = (   0.4106045   0.2053022   0.2053022), wk =   0.0138889
        k(   18) = (   0.4790386   0.2737363   0.2053022), wk =   0.0277778
        k(   19) = (   0.5474726   0.2737363   0.2737363), wk =   0.0046296
        k(   20) = (   0.1368682   0.1368682   0.1368682), wk =   0.0046296
        k(   21) = (   0.2053022   0.2053022   0.1368682), wk =   0.0138889
        k(   22) = (   0.2737363   0.2737363   0.1368682), wk =   0.0138889
        k(   23) = (   0.3421704   0.3421704   0.1368682), wk =   0.0138889
        k(   24) = (   0.4106045   0.4106045   0.1368682), wk =   0.0069444
        k(   25) = (   0.0000000   0.0000000   0.1368682), wk =   0.0034722
        k(   26) = (   0.2737363   0.2053022   0.2053022), wk =   0.0138889
        k(   27) = (   0.3421704   0.2737363   0.2053022), wk =   0.0277778
        k(   28) = (   0.4106045   0.3421704   0.2053022), wk =   0.0277778
        k(   29) = (   0.0000000  -0.0684341   0.2053022), wk =   0.0138889
        k(   30) = (   0.4106045   0.2737363   0.2737363), wk =   0.0138889
        k(   31) = (   0.4790386   0.3421704   0.2737363), wk =   0.0138889
        k(   32) = (  -0.0000000  -0.1368682   0.2737363), wk =   0.0138889
        k(   33) = (   0.0684341  -0.0684341   0.2737363), wk =   0.0138889
        k(   34) = (  -0.0000000  -0.2053022   0.3421704), wk =   0.0138889
        k(   35) = (   0.0684341  -0.1368682   0.3421704), wk =   0.0277778
        k(   36) = (   0.0000000  -0.2737363   0.4106045), wk =   0.0138889
        k(   37) = (   0.0684341  -0.2053022   0.4106045), wk =   0.0277778
        k(   38) = (   0.1368682  -0.1368682   0.4106045), wk =   0.0138889
        k(   39) = (  -0.8212089  -0.3421704  -0.3421704), wk =   0.0069444
        k(   40) = (  -0.7527749  -0.2737363  -0.3421704), wk =   0.0277778
        k(   41) = (  -0.6843408  -0.2053022  -0.3421704), wk =   0.0277778
        k(   42) = (  -0.6843408  -0.2737363  -0.2737363), wk =   0.0138889
        k(   43) = (  -0.6159067  -0.2053022  -0.2737363), wk =   0.0138889
        k(   44) = (   0.2737363   0.2737363   0.2737363), wk =   0.0046296
        k(   45) = (   0.3421704   0.3421704   0.2737363), wk =   0.0138889
        k(   46) = (   0.4106045   0.4106045   0.2737363), wk =   0.0069444
        k(   47) = (   0.0000000   0.0000000   0.2737363), wk =   0.0034722
        k(   48) = (   0.4106045   0.3421704   0.3421704), wk =   0.0138889
        k(   49) = (   0.0000000  -0.0684341   0.3421704), wk =   0.0138889
        k(   50) = (   0.0000000  -0.1368682   0.4106045), wk =   0.0138889
        k(   51) = (   0.0684341  -0.0684341   0.4106045), wk =   0.0138889
        k(   52) = (   0.0000000  -0.2053022   0.4790386), wk =   0.0138889
        k(   53) = (   0.0684341  -0.1368682   0.4790386), wk =   0.0277778
        k(   54) = (  -0.8212089  -0.2737363  -0.2737363), wk =   0.0069444
        k(   55) = (  -0.7527749  -0.2053022  -0.2737363), wk =   0.0277778
        k(   56) = (  -0.6843408  -0.1368682  -0.2737363), wk =   0.0138889
        k(   57) = (  -0.6843408  -0.2053022  -0.2053022), wk =   0.0138889
        k(   58) = (   0.4106045   0.4106045   0.4106045), wk =   0.0011574
        k(   59) = (   0.0000000   0.0000000   0.4106045), wk =   0.0034722
        k(   60) = (   0.0000000  -0.0684341   0.4790386), wk =   0.0138889
        k(   61) = (   0.0000000  -0.1368682   0.5474726), wk =   0.0138889
        k(   62) = (   0.0684341  -0.0684341   0.5474726), wk =   0.0138889
        k(   63) = (  -0.8212089  -0.2053022  -0.2053022), wk =   0.0069444
        k(   64) = (  -0.7527749  -0.1368682  -0.2053022), wk =   0.0277778
        k(   65) = (  -0.6843408  -0.1368682  -0.1368682), wk =   0.0046296
        k(   66) = (   0.0000000   0.0000000   0.5474726), wk =   0.0034722
        k(   67) = (   0.0000000  -0.0684341   0.6159067), wk =   0.0138889
        k(   68) = (  -0.8212089  -0.1368682  -0.1368682), wk =   0.0069444
        k(   69) = (  -0.7527749  -0.0684341  -0.1368682), wk =   0.0138889
        k(   70) = (   0.0000000   0.0000000   0.6843408), wk =   0.0034722
        k(   71) = (  -0.8212089  -0.0684341  -0.0684341), wk =   0.0069444
        k(   72) = (  -0.8212089  -0.8212089  -0.8212089), wk =   0.0005787

     Dense  grid:     6819 G-vectors     FFT dimensions: (  25,  25,  25)

     Smooth grid:     1745 G-vectors     FFT dimensions: (  18,  18,  18)

     Estimated max dynamical RAM per process >      18.59 MB

     Estimated total dynamical RAM >      37.18 MB

     Check: negative core charge=   -0.000005
     Generating pointlists ...

     Initial potential from superposition of free atoms

     starting charge       7.9994, renormalised to       8.0000
     Starting wfcs are    6 randomized atomic wfcs +    2 random wfcs

     total cpu time spent up to now is       13.3 secs

     Self-consistent Calculation

     iteration #  1     ecut=    30.00 Ry     beta= 0.50
     Davidson diagonalization with overlap
     c_bands:  1 eigenvalues not converged
     c_bands:  1 eigenvalues not converged
     c_bands:  1 eigenvalues not converged
     c_bands:  1 eigenvalues not converged
     c_bands:  1 eigenvalues not converged
     c_bands:  1 eigenvalues not converged
     c_bands:  1 eigenvalues not converged
     c_bands:  1 eigenvalues not converged
     c_bands:  1 eigenvalues not converged
     c_bands:  3 eigenvalues not converged
     c_bands:  2 eigenvalues not converged
     c_bands:  1 eigenvalues not converged
     c_bands:  1 eigenvalues not converged
     c_bands:  1 eigenvalues not converged
     c_bands:  1 eigenvalues not converged
     c_bands:  1 eigenvalues not converged
     c_bands:  1 eigenvalues not converged
     c_bands:  1 eigenvalues not converged
     c_bands:  1 eigenvalues not converged
     c_bands:  1 eigenvalues not converged
     c_bands:  1 eigenvalues not converged
     c_bands:  1 eigenvalues not converged
     c_bands:  1 eigenvalues not converged
     c_bands:  1 eigenvalues not converged
     c_bands:  1 eigenvalues not converged
     c_bands:  1 eigenvalues not converged
     ethr =  1.00E-06,  avg # of iterations = 17.1

     total cpu time spent up to now is       14.7 secs

     total energy              =     -55.67286046 Ry
     estimated scf accuracy    <       0.35963389 Ry

     total magnetization       =     2.26 Bohr mag/cell
     absolute magnetization    =     2.26 Bohr mag/cell

     iteration #  2     ecut=    30.00 Ry     beta= 0.50
     Davidson diagonalization with overlap
     ethr =  4.50E-03,  avg # of iterations =  2.0

     total cpu time spent up to now is       15.0 secs

     total energy              =     -55.77861504 Ry
     estimated scf accuracy    <       0.09827475 Ry

     total magnetization       =     2.48 Bohr mag/cell
     absolute magnetization    =     2.49 Bohr mag/cell

     iteration #  3     ecut=    30.00 Ry     beta= 0.50
     Davidson diagonalization with overlap
     ethr =  1.23E-03,  avg # of iterations =  1.0

     total cpu time spent up to now is       15.3 secs

     total energy              =     -55.80040135 Ry
     estimated scf accuracy    <       0.00162468 Ry

     total magnetization       =     2.36 Bohr mag/cell
     absolute magnetization    =     2.40 Bohr mag/cell

     iteration #  4     ecut=    30.00 Ry     beta= 0.50
     Davidson diagonalization with overlap
     ethr =  2.03E-05,  avg # of iterations =  2.3

     total cpu time spent up to now is       15.7 secs

     total energy              =     -55.80241279 Ry
     estimated scf accuracy    <       0.00007731 Ry

     total magnetization       =     2.32 Bohr mag/cell
     absolute magnetization    =     2.45 Bohr mag/cell

     iteration #  5     ecut=    30.00 Ry     beta= 0.50
     Davidson diagonalization with overlap
     ethr =  9.66E-07,  avg # of iterations =  3.2

     total cpu time spent up to now is       16.1 secs

     total energy              =     -55.80249710 Ry
     estimated scf accuracy    <       0.00003932 Ry

     total magnetization       =     2.33 Bohr mag/cell
     absolute magnetization    =     2.47 Bohr mag/cell

     iteration #  6     ecut=    30.00 Ry     beta= 0.50
     Davidson diagonalization with overlap
     ethr =  4.91E-07,  avg # of iterations =  2.0

     total cpu time spent up to now is       16.4 secs

     total energy              =     -55.80252151 Ry
     estimated scf accuracy    <       0.00000272 Ry

     total magnetization       =     2.34 Bohr mag/cell
     absolute magnetization    =     2.49 Bohr mag/cell

     iteration #  7     ecut=    30.00 Ry     beta= 0.50
     Davidson diagonalization with overlap
     ethr =  3.40E-08,  avg # of iterations =  4.7

     total cpu time spent up to now is       16.9 secs

     total energy              =     -55.80252372 Ry
     estimated scf accuracy    <       0.00000713 Ry

     total magnetization       =     2.35 Bohr mag/cell
     absolute magnetization    =     2.49 Bohr mag/cell

     iteration #  8     ecut=    30.00 Ry     beta= 0.50
     Davidson diagonalization with overlap
     ethr =  3.40E-08,  avg # of iterations =  2.2

     total cpu time spent up to now is       17.2 secs

     total energy              =     -55.80252620 Ry
     estimated scf accuracy    <       0.00000036 Ry

     total magnetization       =     2.35 Bohr mag/cell
     absolute magnetization    =     2.49 Bohr mag/cell

     iteration #  9     ecut=    30.00 Ry     beta= 0.50
     Davidson diagonalization with overlap
     ethr =  4.46E-09,  avg # of iterations =  2.3

     total cpu time spent up to now is       17.6 secs

     total energy              =     -55.80252636 Ry
     estimated scf accuracy    <          4.2E-09 Ry

     total magnetization       =     2.35 Bohr mag/cell
     absolute magnetization    =     2.49 Bohr mag/cell

     iteration # 10     ecut=    30.00 Ry     beta= 0.50
     Davidson diagonalization with overlap
     ethr =  5.27E-11,  avg # of iterations =  7.1

     Magnetic moment per site  (integrated on atomic sphere of radius R)
     atom   1 (R=0.413)  charge=  6.1876  magn=  2.3974

     total cpu time spent up to now is       18.2 secs

     End of self-consistent calculation

     Number of k-points >= 100: set verbosity='high' to print the bands.

     the Fermi energy is    13.2736 ev

!    total energy              =     -55.80252640 Ry
     estimated scf accuracy    <          9.2E-11 Ry
     smearing contrib. (-TS)   =       0.00027743 Ry
     internal energy E=F+TS    =     -55.80280383 Ry

     The total energy is F=E-TS. E is the sum of the following terms:
     one-electron contribution =       7.34602137 Ry
     hartree contribution      =       6.59036262 Ry
     xc contribution           =     -26.45290438 Ry
     ewald contribution        =     -43.28628344 Ry

     total magnetization       =     2.35 Bohr mag/cell
     absolute magnetization    =     2.49 Bohr mag/cell

     convergence has been achieved in  10 iterations

     Forces acting on atoms (cartesian axes, Ry/au):

     atom    1 type  1   force =     0.00000000    0.00000000    0.00000000

     Total force =     0.000000     Total SCF correction =     0.000000


     Computing stress (Cartesian axis) and pressure

          total   stress  (Ry/bohr**3)                   (kbar)     P=       -0.34
  -0.00000234   0.00000000   0.00000000           -0.34        0.00        0.00
   0.00000000  -0.00000234   0.00000000            0.00       -0.34        0.00
   0.00000000   0.00000000  -0.00000234            0.00        0.00       -0.34

     Message from routine punch:
     Nothing written, as per user request (disk_io='none')

     init_run     :      0.61s CPU      0.64s WALL (       2 calls)
     electrons    :     14.02s CPU     15.98s WALL (       8 calls)
     update_pot   :      0.04s CPU      0.05s WALL (       6 calls)
     forces       :      0.23s CPU      0.24s WALL (       8 calls)
     stress       :      1.28s CPU      1.31s WALL (       8 calls)

     Called by init_run:
     wfcinit      :      0.15s CPU      0.17s WALL (       2 calls)
     potinit      :      0.14s CPU      0.14s WALL (       2 calls)
     hinit0       :      0.29s CPU      0.29s WALL (       2 calls)

     Called by electrons:
     c_bands      :     10.93s CPU     12.58s WALL (      57 calls)
     sum_band     :      2.25s CPU      2.54s WALL (      57 calls)
     v_of_rho     :      0.36s CPU      0.39s WALL (      62 calls)
     newd         :      0.53s CPU      0.54s WALL (      62 calls)
     mix_rho      :      0.02s CPU      0.02s WALL (      57 calls)

     Called by c_bands:
     init_us_2    :      0.37s CPU      0.43s WALL (   19008 calls)
     cegterg      :     10.15s CPU     11.66s WALL (    8208 calls)

     Called by *egterg:
     cdiaghg      :      1.50s CPU      1.74s WALL (   28854 calls)
     h_psi        :      7.27s CPU      8.34s WALL (   30438 calls)
     s_psi        :      0.13s CPU      0.16s WALL (   30438 calls)
     g_psi        :      0.06s CPU      0.06s WALL (   21942 calls)

     Called by h_psi:
     h_psi:calbec :      0.40s CPU      0.46s WALL (   30438 calls)
     vloc_psi     :      6.57s CPU      7.53s WALL (   30438 calls)
     add_vuspsi   :      0.15s CPU      0.17s WALL (   30438 calls)

     General routines
     calbec       :      0.63s CPU      0.72s WALL (   58230 calls)
     fft          :      0.19s CPU      0.20s WALL (    1866 calls)
     ffts         :      0.12s CPU      0.12s WALL (     238 calls)
     fftw         :      6.33s CPU      7.28s WALL (  424126 calls)
     interpolate  :      0.12s CPU      0.12s WALL (     124 calls)

     Parallel routines

     PWSCF        :     16.32s CPU     18.38s WALL


   This run was terminated on:  18: 2:42  20Oct2025            

=------------------------------------------------------------------------------=
   JOB DONE.
=------------------------------------------------------------------------------=
