
     Program PWSCF v.7.4.1 starts on 21Oct2025 at 12:11:36 

     This program is part of the open-source Quantum ESPRESSO suite
     for quantum simulation of materials; please cite
         "P. Giannozzi et al., J. Phys.:Condens. Matter 21 395502 (2009);
         "P. Giannozzi et al., J. Phys.:Condens. Matter 29 465901 (2017);
         "P. Giannozzi et al., J. Chem. Phys. 152 154105 (2020);
          URL http://www.quantum-espresso.org", 
     in publications or presentations arising from this work. More details at
     http://www.quantum-espresso.org/quote

     Parallel version (MPI), running on     2 processors

     MPI processes distributed on     1 nodes
     450 MiB available memory on the printing compute node when the environment starts

     Waiting for input...
     Reading input from standard input
Warning: card &CELL ignored
Warning: card / ignored

     Current dimensions of program PWSCF are:
     Max number of different atomic species (ntypx) = 10
     Max number of k-points (npk) =  40000
     Max angular momentum in pseudopotentials (lmaxx) =  4
     file O.pz-rrkjus.UPF: wavefunction(s)  2S renormalized
     Message from routine setup:
     using ibrav=0 with symmetry is DISCOURAGED, use correct ibrav instead

     R & G space division:  proc/nbgrp/npool/nimage =       2
     Subspace diagonalization in iterative solution of the eigenvalue problem:
     a serial algorithm will be used


     Parallelization info
     --------------------
     sticks:   dense  smooth     PW     G-vecs:    dense   smooth      PW
     Min         502     252     72                12054     4204     682
     Max         503     253     73                12057     4205     683
     Sum        1005     505    145                24111     8409    1365

     Using Slab Decomposition



     bravais-lattice index     =            0
     lattice parameter (alat)  =       7.2754  a.u.
     unit-cell volume          =     385.1047 (a.u.)^3
     number of atoms/cell      =            5
     number of atomic types    =            3
     number of electrons       =        44.00
     number of Kohn-Sham states=           22
     kinetic-energy cutoff     =      30.0000  Ry
     charge density cutoff     =     240.0000  Ry
     scf convergence threshold =      1.0E-07
     mixing beta               =       0.7000
     number of iterations used =            8  plain     mixing
     Exchange-correlation= SLA  PZ   NOGX NOGC
                           (   1   1   0   0   0   0   0)

     celldm(1)=   7.275446  celldm(2)=   0.000000  celldm(3)=   0.000000
     celldm(4)=   0.000000  celldm(5)=   0.000000  celldm(6)=   0.000000

     crystal axes: (cart. coord. in units of alat)
               a(1) = (   1.000000   0.000000   0.000000 )  
               a(2) = (   0.000000   1.000000   0.000000 )  
               a(3) = (   0.000000   0.000000   1.000000 )  

     reciprocal axes: (cart. coord. in units 2 pi/alat)
               b(1) = (  1.000000  0.000000  0.000000 )  
               b(2) = (  0.000000  1.000000  0.000000 )  
               b(3) = (  0.000000  0.000000  1.000000 )  


     PseudoPot. # 1 for O  read from file:
     /home/bond/Software/QE/qe-7.4.1/pseudo/O.pz-rrkjus.UPF
     MD5 check sum: 24fb942a68ef5d262e498166c462ef4a
     Pseudo is Ultrasoft, Zval =  6.0
     Generated by new atomic code, or converted to UPF format
     Using radial grid of 1269 points,  4 beta functions with: 
                l(1) =   0
                l(2) =   0
                l(3) =   1
                l(4) =   1
     Q(r) pseudized with 0 coefficients 


     PseudoPot. # 2 for Pb read from file:
     /home/bond/Software/QE/qe-7.4.1/pseudo/Pb.pz-d-van.UPF
     MD5 check sum: 4e1e5920686a026ae26139ac417581ff
     Pseudo is Ultrasoft, Zval = 14.0
     Generated by new atomic code, or converted to UPF format
     Using radial grid of  899 points,  6 beta functions with: 
                l(1) =   0
                l(2) =   0
                l(3) =   1
                l(4) =   1
                l(5) =   2
                l(6) =   2
     Q(r) pseudized with  8 coefficients,  rinner =    1.000   1.000   1.000
                                                       1.000   1.000

     PseudoPot. # 3 for Ti read from file:
     /home/bond/Software/QE/qe-7.4.1/pseudo/Ti.pz-sp-van_ak.UPF
     MD5 check sum: 545d0e6e05332b8871a8093f427cb0ca
     Pseudo is Ultrasoft, Zval = 12.0
     Generated by new atomic code, or converted to UPF format
     Using radial grid of  851 points,  6 beta functions with: 
                l(1) =   0
                l(2) =   0
                l(3) =   1
                l(4) =   1
                l(5) =   2
                l(6) =   2
     Q(r) pseudized with  8 coefficients,  rinner =    1.000   1.000   1.000
                                                       1.000   1.000

     atomic species   valence    mass     pseudopotential
     O                 6.00    15.99900     O ( 1.00)
     Pb               14.00   207.20000     Pb( 1.00)
     Ti               12.00    47.86700     Ti( 1.00)

     48 Sym. Ops., with inversion, found



   Cartesian axes

     site n.     atom                  positions (alat units)
         1        Pb     tau(   1) = (   0.0000000   0.0000000   0.0000000  )
         2        Ti     tau(   2) = (   0.5000000   0.5000000   0.5000000  )
         3        O      tau(   3) = (   0.0000000   0.5000000   0.5000000  )
         4        O      tau(   4) = (   0.5000000   0.0000000   0.5000000  )
         5        O      tau(   5) = (   0.5000000   0.5000000   0.0000000  )

     number of k points=     4
                       cart. coord. in units 2pi/alat
        k(    1) = (   0.1250000   0.1250000   0.1250000), wk =   0.2500000
        k(    2) = (   0.1250000   0.1250000   0.3750000), wk =   0.7500000
        k(    3) = (   0.1250000   0.3750000   0.3750000), wk =   0.7500000
        k(    4) = (   0.3750000   0.3750000   0.3750000), wk =   0.2500000

     Dense  grid:    24111 G-vectors     FFT dimensions: (  36,  36,  36)

     Smooth grid:     8409 G-vectors     FFT dimensions: (  25,  25,  25)

     Estimated max dynamical RAM per process >      49.39 MB

     Estimated total dynamical RAM >      98.78 MB

     Initial potential from superposition of free atoms

     starting charge      42.9982, renormalised to      44.0000
     Starting wfcs are   31 randomized atomic wfcs

     total cpu time spent up to now is        1.8 secs

     Self-consistent Calculation

     iteration #  1     ecut=    30.00 Ry     beta= 0.70
     Davidson diagonalization with overlap
     ethr =  1.00E-02,  avg # of iterations =  2.0

     total cpu time spent up to now is        2.0 secs

     total energy              =    -332.62016648 Ry
     estimated scf accuracy    <       1.09654573 Ry

     iteration #  2     ecut=    30.00 Ry     beta= 0.70
     Davidson diagonalization with overlap
     ethr =  2.49E-03,  avg # of iterations =  6.5

     total cpu time spent up to now is        2.5 secs

     total energy              =    -332.43110251 Ry
     estimated scf accuracy    <       3.84053141 Ry

     iteration #  3     ecut=    30.00 Ry     beta= 0.70
     Davidson diagonalization with overlap
     ethr =  2.49E-03,  avg # of iterations =  5.5

     total cpu time spent up to now is        2.8 secs

     total energy              =    -333.15927962 Ry
     estimated scf accuracy    <       0.20693197 Ry

     iteration #  4     ecut=    30.00 Ry     beta= 0.70
     Davidson diagonalization with overlap
     ethr =  4.70E-04,  avg # of iterations =  2.5

     total cpu time spent up to now is        3.1 secs

     total energy              =    -333.15689815 Ry
     estimated scf accuracy    <       0.05328809 Ry

     iteration #  5     ecut=    30.00 Ry     beta= 0.70
     Davidson diagonalization with overlap
     ethr =  1.21E-04,  avg # of iterations =  5.5

     total cpu time spent up to now is        3.4 secs

     total energy              =    -333.18132786 Ry
     estimated scf accuracy    <       0.02536359 Ry

     iteration #  6     ecut=    30.00 Ry     beta= 0.70
     Davidson diagonalization with overlap
     ethr =  5.76E-05,  avg # of iterations =  2.5

     total cpu time spent up to now is        3.7 secs

     total energy              =    -333.18064192 Ry
     estimated scf accuracy    <       0.00749655 Ry

     iteration #  7     ecut=    30.00 Ry     beta= 0.70
     Davidson diagonalization with overlap
     ethr =  1.70E-05,  avg # of iterations =  4.8

     total cpu time spent up to now is        4.0 secs

     total energy              =    -333.18322669 Ry
     estimated scf accuracy    <       0.00049050 Ry

     iteration #  8     ecut=    30.00 Ry     beta= 0.70
     Davidson diagonalization with overlap
     ethr =  1.11E-06,  avg # of iterations =  3.5

     total cpu time spent up to now is        4.3 secs

     total energy              =    -333.18312526 Ry
     estimated scf accuracy    <       0.00055329 Ry

     iteration #  9     ecut=    30.00 Ry     beta= 0.70
     Davidson diagonalization with overlap
     ethr =  1.11E-06,  avg # of iterations =  2.5

     total cpu time spent up to now is        4.6 secs

     total energy              =    -333.18309627 Ry
     estimated scf accuracy    <       0.00017215 Ry

     iteration # 10     ecut=    30.00 Ry     beta= 0.70
     Davidson diagonalization with overlap
     ethr =  3.91E-07,  avg # of iterations =  4.8

     total cpu time spent up to now is        4.9 secs

     total energy              =    -333.18316663 Ry
     estimated scf accuracy    <       0.00003140 Ry

     iteration # 11     ecut=    30.00 Ry     beta= 0.70
     Davidson diagonalization with overlap
     ethr =  7.14E-08,  avg # of iterations =  1.2

     total cpu time spent up to now is        5.1 secs

     total energy              =    -333.18315990 Ry
     estimated scf accuracy    <       0.00002522 Ry

     iteration # 12     ecut=    30.00 Ry     beta= 0.70
     Davidson diagonalization with overlap
     ethr =  5.73E-08,  avg # of iterations =  3.8

     total cpu time spent up to now is        5.4 secs

     total energy              =    -333.18316153 Ry
     estimated scf accuracy    <       0.00000337 Ry

     iteration # 13     ecut=    30.00 Ry     beta= 0.70
     Davidson diagonalization with overlap
     ethr =  7.65E-09,  avg # of iterations =  4.8

     total cpu time spent up to now is        5.7 secs

     total energy              =    -333.18316284 Ry
     estimated scf accuracy    <       0.00000027 Ry

     iteration # 14     ecut=    30.00 Ry     beta= 0.70
     Davidson diagonalization with overlap
     ethr =  6.14E-10,  avg # of iterations =  4.5

     total cpu time spent up to now is        6.0 secs

     total energy              =    -333.18316297 Ry
     estimated scf accuracy    <       0.00000014 Ry

     iteration # 15     ecut=    30.00 Ry     beta= 0.70
     Davidson diagonalization with overlap
     ethr =  3.26E-10,  avg # of iterations =  1.0

     total cpu time spent up to now is        6.3 secs

     total energy              =    -333.18316292 Ry
     estimated scf accuracy    <       0.00000015 Ry

     iteration # 16     ecut=    30.00 Ry     beta= 0.70
     Davidson diagonalization with overlap
     ethr =  3.26E-10,  avg # of iterations =  3.0

     total cpu time spent up to now is        6.6 secs

     End of self-consistent calculation

          k = 0.1250 0.1250 0.1250 (  1069 PWs)   bands (ev):

   -44.2599 -20.8869 -20.8854 -20.8854  -6.1022  -4.9892  -4.9892  -3.5919
    -3.5919  -3.5770  -3.4076  -3.4076   4.9856   7.5713   7.5713   8.4212
     9.4336   9.4336  10.1893  10.2859  10.2859  10.4400

          k = 0.1250 0.1250 0.3750 (  1075 PWs)   bands (ev):

   -44.2586 -20.9494 -20.8837 -20.8832  -5.6759  -4.8656  -4.7975  -3.6584
    -3.5872  -3.5750  -3.5096  -3.3714   4.2160   7.1078   7.5825   8.1373
     8.7583   9.0267   9.7101  10.2453  10.4280  11.2496

          k = 0.1250 0.3750 0.3750 (  1061 PWs)   bands (ev):

   -44.2571 -20.9461 -20.9448 -20.8806  -5.4502  -4.7151  -4.6411  -3.6299
    -3.5837  -3.5292  -3.4343  -3.2820   3.8150   7.0876   7.0950   7.4321
     7.7475   8.9983   9.7677   9.7758  10.4102  11.0498

          k = 0.3750 0.3750 0.3750 (  1058 PWs)   bands (ev):

   -44.2557 -20.9428 -20.9424 -20.9424  -5.0191  -4.8391  -4.8391  -3.5338
    -3.5338  -3.2385  -3.1694  -3.1694   4.4406   6.1555   6.1555   7.0125
     7.2888   7.2888   8.3204  11.0046  11.0046  11.0779

     highest occupied level (ev):    11.2496

!    total energy              =    -333.18316290 Ry
     estimated scf accuracy    <       0.00000003 Ry

     The total energy is the sum of the following terms:
     one-electron contribution =     -73.84191158 Ry
     hartree contribution      =      65.47339022 Ry
     xc contribution           =     -49.72248486 Ry
     ewald contribution        =    -275.09215668 Ry

     convergence has been achieved in  16 iterations

     Forces acting on atoms (cartesian axes, Ry/au):

     atom    1 type  2   force =     0.00000000    0.00000000    0.00000000
     atom    2 type  3   force =     0.00000000    0.00000000    0.00000000
     atom    3 type  1   force =     0.00000000    0.00000000    0.00000000
     atom    4 type  1   force =     0.00000000    0.00000000    0.00000000
     atom    5 type  1   force =     0.00000000    0.00000000    0.00000000

     Total force =     0.000000     Total SCF correction =     0.000000


     Computing stress (Cartesian axis) and pressure

          total   stress  (Ry/bohr**3)                   (kbar)     P=       26.85
   0.00018254   0.00000000   0.00000000           26.85        0.00        0.00
   0.00000000   0.00018254   0.00000000            0.00       26.85        0.00
   0.00000000   0.00000000   0.00018254            0.00        0.00       26.85

     Message from routine punch:
     Nothing written, as per user request (disk_io='none')

     init_run     :      0.86s CPU      1.02s WALL (       1 calls)
     electrons    :      4.56s CPU      4.80s WALL (       1 calls)
     forces       :      0.12s CPU      0.12s WALL (       1 calls)
     stress       :      1.09s CPU      1.09s WALL (       1 calls)

     Called by init_run:
     wfcinit      :      0.05s CPU      0.07s WALL (       1 calls)
     potinit      :      0.07s CPU      0.08s WALL (       1 calls)
     hinit0       :      0.58s CPU      0.61s WALL (       1 calls)

     Called by electrons:
     c_bands      :      1.44s CPU      1.64s WALL (      16 calls)
     sum_band     :      1.73s CPU      1.77s WALL (      16 calls)
     v_of_rho     :      0.04s CPU      0.04s WALL (      17 calls)
     newd         :      1.37s CPU      1.46s WALL (      17 calls)
     mix_rho      :      0.03s CPU      0.03s WALL (      16 calls)

     Called by c_bands:
     init_us_2    :      0.05s CPU      0.06s WALL (     140 calls)
     cegterg      :      1.33s CPU      1.51s WALL (      64 calls)

     Called by *egterg:
     cdiaghg      :      0.19s CPU      0.21s WALL (     297 calls)
     h_psi        :      0.92s CPU      1.06s WALL (     301 calls)
     s_psi        :      0.04s CPU      0.05s WALL (     301 calls)
     g_psi        :      0.01s CPU      0.01s WALL (     233 calls)

     Called by h_psi:
     h_psi:calbec :      0.07s CPU      0.08s WALL (     301 calls)
     vloc_psi     :      0.80s CPU      0.92s WALL (     301 calls)
     add_vuspsi   :      0.05s CPU      0.05s WALL (     301 calls)

     General routines
     calbec       :      0.11s CPU      0.13s WALL (     433 calls)
     fft          :      0.23s CPU      0.25s WALL (     105 calls)
     ffts         :      0.04s CPU      0.04s WALL (      33 calls)
     fftw         :      0.76s CPU      0.87s WALL (    9136 calls)
     interpolate  :      0.05s CPU      0.05s WALL (      17 calls)

     Parallel routines

     PWSCF        :      7.31s CPU      7.78s WALL


   This run was terminated on:  12:11:44  21Oct2025            

=------------------------------------------------------------------------------=
   JOB DONE.
=------------------------------------------------------------------------------=
