
     Program PWSCF v.7.4.1 starts on  9Oct2025 at 13: 2: 6 

     This program is part of the open-source Quantum ESPRESSO suite
     for quantum simulation of materials; please cite
         "P. Giannozzi et al., J. Phys.:Condens. Matter 21 395502 (2009);
         "P. Giannozzi et al., J. Phys.:Condens. Matter 29 465901 (2017);
         "P. Giannozzi et al., J. Chem. Phys. 152 154105 (2020);
          URL http://www.quantum-espresso.org", 
     in publications or presentations arising from this work. More details at
     http://www.quantum-espresso.org/quote

     Parallel version (MPI), running on     1 processors

     MPI processes distributed on     1 nodes
     296 MiB available memory on the printing compute node when the environment starts

     Waiting for input...
     Reading input from standard input
Warning: card &CELL ignored
Warning: card / ignored

     Current dimensions of program PWSCF are:
     Max number of different atomic species (ntypx) = 10
     Max number of k-points (npk) =  40000
     Max angular momentum in pseudopotentials (lmaxx) =  4
     Message from routine setup:
     using ibrav=0 with symmetry is DISCOURAGED, use correct ibrav instead

     Subspace diagonalization in iterative solution of the eigenvalue problem:
     a serial algorithm will be used


     G-vector sticks info
     --------------------
     sticks:   dense  smooth     PW     G-vecs:    dense   smooth      PW
     Sum         559     559    163                 8657     8657    1459

     Using Slab Decomposition



     bravais-lattice index     =            0
     lattice parameter (alat)  =       7.5872  a.u.
     unit-cell volume          =     308.8323 (a.u.)^3
     number of atoms/cell      =            2
     number of atomic types    =            1
     number of electrons       =        28.00
     number of Kohn-Sham states=           14
     kinetic-energy cutoff     =      35.0000  Ry
     charge density cutoff     =     140.0000  Ry
     scf convergence threshold =      1.0E-07
     mixing beta               =       0.5000
     number of iterations used =            8  plain     mixing
     Exchange-correlation=  SLA  PZ   NOGX NOGC
                           (   1   1   0   0   0   0   0)

     celldm(1)=   7.587160  celldm(2)=   0.000000  celldm(3)=   0.000000
     celldm(4)=   0.000000  celldm(5)=   0.000000  celldm(6)=   0.000000

     crystal axes: (cart. coord. in units of alat)
               a(1) = (   0.000000   0.707107   0.707107 )  
               a(2) = (   0.707107   0.000000   0.707107 )  
               a(3) = (   0.707107   0.707107   0.000000 )  

     reciprocal axes: (cart. coord. in units 2 pi/alat)
               b(1) = ( -0.707107  0.707107  0.707107 )  
               b(2) = (  0.707107 -0.707107  0.707107 )  
               b(3) = (  0.707107  0.707107 -0.707107 )  


     PseudoPot. # 1 for Ge read from file:
     /home/bond/Software/QE/qe-7.4.1/pseudo/ge_lda_v1.4.uspp.F.UPF
     MD5 check sum: bf9d52b59cc8a669818bb2b52e0c2ba0
     Pseudo is Ultrasoft + core correction, Zval = 14.0
     Generated by new atomic code, or converted to UPF format
     Using radial grid of  873 points,  6 beta functions with: 
                l(1) =   0
                l(2) =   0
                l(3) =   1
                l(4) =   1
                l(5) =   2
                l(6) =   2
     Q(r) pseudized with  8 coefficients,  rinner =    1.400   1.400   1.400
                                                       1.400   1.400

     atomic species   valence    mass     pseudopotential
     Ge               14.00    72.63000     Ge( 1.00)

     48 Sym. Ops., with inversion, found (24 have fractional translation)



   Cartesian axes

     site n.     atom                  positions (alat units)
         1        Ge     tau(   1) = (   0.0000000   0.0000000   0.0000000  )
         2        Ge     tau(   2) = (   0.3535534   0.3535534   0.3535534  )

     number of k points=     8
                       cart. coord. in units 2pi/alat
        k(    1) = (   0.0000000   0.0000000   0.0000000), wk =   0.0312500
        k(    2) = (   0.1767767   0.1767767  -0.1767767), wk =   0.2500000
        k(    3) = (  -0.3535534  -0.3535534   0.3535534), wk =   0.1250000
        k(    4) = (   0.3535534   0.0000000   0.0000000), wk =   0.1875000
        k(    5) = (  -0.1767767  -0.5303301   0.5303301), wk =   0.7500000
        k(    6) = (   0.0000000  -0.3535534   0.3535534), wk =   0.3750000
        k(    7) = (  -0.7071068   0.0000000   0.0000000), wk =   0.0937500
        k(    8) = (  -0.7071068   0.3535534   0.0000000), wk =   0.1875000

     Dense  grid:     8657 G-vectors     FFT dimensions: (  32,  32,  32)

     Estimated max dynamical RAM per process >      36.02 MB

     Check: negative core charge=   -0.000016

     Initial potential from superposition of free atoms

     starting charge      27.9986, renormalised to      28.0000
     Starting wfcs are   18 randomized atomic wfcs

     total cpu time spent up to now is        0.6 secs

     Self-consistent Calculation

     iteration #  1     ecut=    35.00 Ry     beta= 0.50
     Davidson diagonalization with overlap
     ethr =  1.00E-02,  avg # of iterations =  1.6

     Threshold (ethr) on eigenvalues was too large:
     Diagonalizing with lowered threshold

     Davidson diagonalization with overlap
     ethr =  1.29E-04,  avg # of iterations =  2.0

     total cpu time spent up to now is        0.9 secs

     total energy              =    -426.15002790 Ry
     estimated scf accuracy    <       0.03877956 Ry

     iteration #  2     ecut=    35.00 Ry     beta= 0.50
     Davidson diagonalization with overlap
     ethr =  1.38E-04,  avg # of iterations =  1.1

     total cpu time spent up to now is        1.1 secs

     total energy              =    -426.14850943 Ry
     estimated scf accuracy    <       0.00688987 Ry

     iteration #  3     ecut=    35.00 Ry     beta= 0.50
     Davidson diagonalization with overlap
     ethr =  2.46E-05,  avg # of iterations =  2.0

     total cpu time spent up to now is        1.3 secs

     total energy              =    -426.14899853 Ry
     estimated scf accuracy    <       0.00007315 Ry

     iteration #  4     ecut=    35.00 Ry     beta= 0.50
     Davidson diagonalization with overlap
     ethr =  2.61E-07,  avg # of iterations =  3.5

     total cpu time spent up to now is        1.5 secs

     total energy              =    -426.14901831 Ry
     estimated scf accuracy    <       0.00000323 Ry

     iteration #  5     ecut=    35.00 Ry     beta= 0.50
     Davidson diagonalization with overlap
     ethr =  1.15E-08,  avg # of iterations =  3.4

     total cpu time spent up to now is        1.8 secs

     total energy              =    -426.14901917 Ry
     estimated scf accuracy    <       0.00000011 Ry

     iteration #  6     ecut=    35.00 Ry     beta= 0.50
     Davidson diagonalization with overlap
     ethr =  3.93E-10,  avg # of iterations =  4.1

     total cpu time spent up to now is        2.0 secs

     End of self-consistent calculation

          k = 0.0000 0.0000 0.0000 (  1067 PWs)   bands (ev):

   -16.8085 -16.8085 -16.8085 -16.7745 -16.7745 -16.5693 -16.5693 -16.5693
   -16.5553 -16.5553  -4.6866   7.7737   8.0585   8.0585

          k = 0.1768 0.1768-0.1768 (  1077 PWs)   bands (ev):

   -16.8268 -16.8268 -16.8007 -16.7464 -16.7464 -16.5942 -16.5942 -16.5788
   -16.5364 -16.5364  -3.9524   3.2888   7.1835   7.1835

          k =-0.3536-0.3536 0.3536 (  1068 PWs)   bands (ev):

   -16.8331 -16.8331 -16.7923 -16.7329 -16.7329 -16.6029 -16.6029 -16.5887
   -16.5293 -16.5293  -2.6239   0.4509   6.6666   6.6666

          k = 0.3536 0.0000 0.0000 (  1062 PWs)   bands (ev):

   -16.8272 -16.8272 -16.8148 -16.7407 -16.7067 -16.6535 -16.5861 -16.5437
   -16.5410 -16.5410  -3.6871   3.2633   6.0386   6.0386

          k =-0.1768-0.5303 0.5303 (  1082 PWs)   bands (ev):

   -16.8537 -16.8394 -16.7728 -16.7073 -16.6881 -16.6699 -16.6236 -16.5925
   -16.5219 -16.5079  -2.2162   0.6435   4.3427   5.6774

          k = 0.0000-0.3536 0.3536 (  1081 PWs)   bands (ev):

   -16.8489 -16.8420 -16.7666 -16.7312 -16.7046 -16.6348 -16.6153 -16.6025
   -16.5186 -16.5151  -2.8230   1.4885   4.2071   6.5669

          k =-0.7071 0.0000 0.0000 (  1106 PWs)   bands (ev):

   -16.8432 -16.8432 -16.7593 -16.7593 -16.6629 -16.6629 -16.6072 -16.6072
   -16.5166 -16.5166  -0.8459  -0.8459   5.0111   5.0111

          k =-0.7071 0.3536 0.0000 (  1084 PWs)   bands (ev):

   -16.8561 -16.8561 -16.7175 -16.7175 -16.6702 -16.6702 -16.6394 -16.6394
   -16.5042 -16.5042  -0.7512  -0.7512   4.1748   4.1748

     highest occupied level (ev):     8.0585

!    total energy              =    -426.14901922 Ry
     estimated scf accuracy    <       0.00000002 Ry

     The total energy is the sum of the following terms:
     one-electron contribution =    -280.37736516 Ry
     hartree contribution      =     165.56262996 Ry
     xc contribution           =    -114.53545698 Ry
     ewald contribution        =    -196.79882703 Ry

     convergence has been achieved in   6 iterations

     Forces acting on atoms (cartesian axes, Ry/au):

     atom    1 type  1   force =     0.00000000    0.00000000    0.00000000
     atom    2 type  1   force =     0.00000000    0.00000000    0.00000000

     Total force =     0.000000     Total SCF correction =     0.000000


     Computing stress (Cartesian axis) and pressure

          total   stress  (Ry/bohr**3)                   (kbar)     P=      -24.30
  -0.00016520   0.00000000   0.00000000          -24.30        0.00        0.00
   0.00000000  -0.00016520   0.00000000            0.00      -24.30        0.00
   0.00000000   0.00000000  -0.00016520            0.00        0.00      -24.30

     Message from routine punch:
     Nothing written, as per user request (disk_io='none')

     init_run     :      0.51s CPU      0.51s WALL (       1 calls)
     electrons    :      1.36s CPU      1.38s WALL (       1 calls)
     forces       :      0.04s CPU      0.04s WALL (       1 calls)
     stress       :      0.30s CPU      0.30s WALL (       1 calls)

     Called by init_run:
     wfcinit      :      0.19s CPU      0.19s WALL (       1 calls)
     potinit      :      0.01s CPU      0.01s WALL (       1 calls)
     hinit0       :      0.28s CPU      0.28s WALL (       1 calls)

     Called by electrons:
     c_bands      :      0.91s CPU      0.92s WALL (       7 calls)
     sum_band     :      0.30s CPU      0.32s WALL (       7 calls)
     v_of_rho     :      0.01s CPU      0.01s WALL (       7 calls)
     newd         :      0.15s CPU      0.15s WALL (       7 calls)
     mix_rho      :      0.00s CPU      0.00s WALL (       7 calls)

     Called by c_bands:
     init_us_2    :      0.03s CPU      0.04s WALL (     136 calls)
     cegterg      :      0.83s CPU      0.83s WALL (      56 calls)

     Called by *egterg:
     cdiaghg      :      0.03s CPU      0.03s WALL (     190 calls)
     h_psi        :      0.87s CPU      0.87s WALL (     206 calls)
     s_psi        :      0.02s CPU      0.02s WALL (     206 calls)
     g_psi        :      0.01s CPU      0.01s WALL (     142 calls)

     Called by h_psi:
     h_psi:calbec :      0.02s CPU      0.02s WALL (     206 calls)
     vloc_psi     :      0.82s CPU      0.83s WALL (     206 calls)
     add_vuspsi   :      0.02s CPU      0.02s WALL (     206 calls)

     General routines
     calbec       :      0.05s CPU      0.05s WALL (     398 calls)
     fft          :      0.14s CPU      0.14s WALL (      37 calls)
     ffts         :      0.00s CPU      0.00s WALL (       7 calls)
     fftw         :      0.81s CPU      0.82s WALL (    5046 calls)

     Parallel routines

     PWSCF        :      2.30s CPU      2.33s WALL


   This run was terminated on:  13: 2: 8   9Oct2025            

=------------------------------------------------------------------------------=
   JOB DONE.
=------------------------------------------------------------------------------=
