
     Program PWSCF v.7.4.1 starts on  8Oct2025 at 21:38:17 

     This program is part of the open-source Quantum ESPRESSO suite
     for quantum simulation of materials; please cite
         "P. Giannozzi et al., J. Phys.:Condens. Matter 21 395502 (2009);
         "P. Giannozzi et al., J. Phys.:Condens. Matter 29 465901 (2017);
         "P. Giannozzi et al., J. Chem. Phys. 152 154105 (2020);
          URL http://www.quantum-espresso.org", 
     in publications or presentations arising from this work. More details at
     http://www.quantum-espresso.org/quote

     Parallel version (MPI), running on     1 processors

     MPI processes distributed on     1 nodes
     697 MiB available memory on the printing compute node when the environment starts

     Waiting for input...
     Reading input from standard input
Warning: card &CELL ignored
Warning: card / ignored

     Current dimensions of program PWSCF are:
     Max number of different atomic species (ntypx) = 10
     Max number of k-points (npk) =  40000
     Max angular momentum in pseudopotentials (lmaxx) =  4
     Message from routine find_sym:
     Not a group! Trying with lower acceptance parameter...
     Message from routine find_sym:
     Still not a group! symmetry disabled

     Subspace diagonalization in iterative solution of the eigenvalue problem:
     a serial algorithm will be used


     G-vector sticks info
     --------------------
     sticks:   dense  smooth     PW     G-vecs:    dense   smooth      PW
     Sum         517     517    163                 7823     7823    1459

     Using Slab Decomposition



     bravais-lattice index     =            0
     lattice parameter (alat)  =       7.3582  a.u.
     unit-cell volume          =     281.7105 (a.u.)^3
     number of atoms/cell      =            2
     number of atomic types    =            1
     number of electrons       =        28.00
     number of Kohn-Sham states=           14
     kinetic-energy cutoff     =      35.0000  Ry
     charge density cutoff     =     140.0000  Ry
     scf convergence threshold =      1.0E-07
     mixing beta               =       0.5000
     number of iterations used =            8  plain     mixing
     Exchange-correlation=  SLA  PZ   NOGX NOGC
                           (   1   1   0   0   0   0   0)

     celldm(1)=   7.358218  celldm(2)=   0.000000  celldm(3)=   0.000000
     celldm(4)=   0.000000  celldm(5)=   0.000000  celldm(6)=   0.000000

     crystal axes: (cart. coord. in units of alat)
               a(1) = (   0.000000   0.707107   0.707107 )  
               a(2) = (   0.707107   0.000000   0.707107 )  
               a(3) = (   0.707107   0.707107   0.000000 )  

     reciprocal axes: (cart. coord. in units 2 pi/alat)
               b(1) = ( -0.707107  0.707107  0.707107 )  
               b(2) = (  0.707107 -0.707107  0.707107 )  
               b(3) = (  0.707107  0.707107 -0.707107 )  


     PseudoPot. # 1 for Ge read from file:
     /home/bond/Software/QE/qe-7.4.1/pseudo/ge_lda_v1.4.uspp.F.UPF
     MD5 check sum: bf9d52b59cc8a669818bb2b52e0c2ba0
     Pseudo is Ultrasoft + core correction, Zval = 14.0
     Generated by new atomic code, or converted to UPF format
     Using radial grid of  873 points,  6 beta functions with: 
                l(1) =   0
                l(2) =   0
                l(3) =   1
                l(4) =   1
                l(5) =   2
                l(6) =   2
     Q(r) pseudized with  8 coefficients,  rinner =    1.400   1.400   1.400
                                                       1.400   1.400

     atomic species   valence    mass     pseudopotential
     Ge               14.00    72.63000     Ge( 1.00)

     No symmetry found



   Cartesian axes

     site n.     atom                  positions (alat units)
         1        Ge     tau(   1) = (   0.0000000   0.0000000   0.0000000  )
         2        Ge     tau(   2) = (   0.3535542   0.3535542   0.3535542  )

     number of k points=   504

     Number of k-points >= 100: set verbosity='high' to print them.

     Dense  grid:     7823 G-vectors     FFT dimensions: (  32,  32,  32)

     Estimated max dynamical RAM per process >     137.25 MB

     Check: negative core charge=   -0.000016

     Initial potential from superposition of free atoms

     starting charge      27.9986, renormalised to      28.0000
     Starting wfcs are   18 randomized atomic wfcs

     total cpu time spent up to now is        4.7 secs

     Self-consistent Calculation

     iteration #  1     ecut=    35.00 Ry     beta= 0.50
     Davidson diagonalization with overlap
     ethr =  1.00E-02,  avg # of iterations =  1.9

     Threshold (ethr) on eigenvalues was too large:
     Diagonalizing with lowered threshold

     Davidson diagonalization with overlap
     ethr =  1.34E-04,  avg # of iterations =  2.0

     total cpu time spent up to now is       21.3 secs

     total energy              =    -426.16714381 Ry
     estimated scf accuracy    <       0.03935812 Ry

     iteration #  2     ecut=    35.00 Ry     beta= 0.50
     Davidson diagonalization with overlap
     ethr =  1.41E-04,  avg # of iterations =  1.0

     total cpu time spent up to now is       29.0 secs

     total energy              =    -426.16570172 Ry
     estimated scf accuracy    <       0.00669172 Ry

     iteration #  3     ecut=    35.00 Ry     beta= 0.50
     Davidson diagonalization with overlap
     ethr =  2.39E-05,  avg # of iterations =  2.0

     total cpu time spent up to now is       37.8 secs

     total energy              =    -426.16624105 Ry
     estimated scf accuracy    <       0.00007497 Ry

     iteration #  4     ecut=    35.00 Ry     beta= 0.50
     Davidson diagonalization with overlap
     ethr =  2.68E-07,  avg # of iterations =  3.4

     total cpu time spent up to now is       49.2 secs

     total energy              =    -426.16626510 Ry
     estimated scf accuracy    <       0.00000274 Ry

     iteration #  5     ecut=    35.00 Ry     beta= 0.50
     Davidson diagonalization with overlap
     ethr =  9.79E-09,  avg # of iterations =  3.5

     total cpu time spent up to now is       60.7 secs

     total energy              =    -426.16626601 Ry
     estimated scf accuracy    <       0.00000016 Ry

     iteration #  6     ecut=    35.00 Ry     beta= 0.50
     Davidson diagonalization with overlap
     ethr =  5.71E-10,  avg # of iterations =  3.1

     total cpu time spent up to now is       71.7 secs

     End of self-consistent calculation

     Number of k-points >= 100: set verbosity='high' to print the bands.

     highest occupied level (ev):     9.2632

!    total energy              =    -426.16626606 Ry
     estimated scf accuracy    <       0.00000004 Ry

     The total energy is the sum of the following terms:
     one-electron contribution =    -270.16627721 Ry
     hartree contribution      =     161.56053674 Ry
     xc contribution           =    -114.63853893 Ry
     ewald contribution        =    -202.92198666 Ry

     convergence has been achieved in   6 iterations

     Forces acting on atoms (cartesian axes, Ry/au):

     atom    1 type  1   force =    -0.00000253   -0.00000101    0.00000113
     atom    2 type  1   force =     0.00000253    0.00000101   -0.00000113

     Total force =     0.000004     Total SCF correction =     0.000011
     SCF correction compared to forces is large: reduce conv_thr to get better values


     Computing stress (Cartesian axis) and pressure

          total   stress  (Ry/bohr**3)                   (kbar)     P=       38.52
   0.00026184  -0.00000001  -0.00000001           38.52       -0.00       -0.00
  -0.00000001   0.00026184  -0.00000001           -0.00       38.52       -0.00
  -0.00000001  -0.00000001   0.00026184           -0.00       -0.00       38.52

     Message from routine punch:
     Nothing written, as per user request (disk_io='none')

     init_run     :      4.46s CPU      4.63s WALL (       1 calls)
     electrons    :     65.77s CPU     66.98s WALL (       1 calls)
     forces       :      0.53s CPU      0.54s WALL (       1 calls)
     stress       :      2.73s CPU      2.76s WALL (       1 calls)

     Called by init_run:
     wfcinit      :      4.11s CPU      4.27s WALL (       1 calls)
     potinit      :      0.01s CPU      0.01s WALL (       1 calls)
     hinit0       :      0.27s CPU      0.28s WALL (       1 calls)

     Called by electrons:
     c_bands      :     56.28s CPU     57.32s WALL (       7 calls)
     sum_band     :      9.36s CPU      9.52s WALL (       7 calls)
     v_of_rho     :      0.01s CPU      0.01s WALL (       7 calls)
     newd         :      0.14s CPU      0.15s WALL (       7 calls)
     mix_rho      :      0.00s CPU      0.00s WALL (       7 calls)

     Called by c_bands:
     init_us_2    :      2.12s CPU      2.17s WALL (    8568 calls)
     cegterg      :     51.20s CPU     52.10s WALL (    3528 calls)

     Called by *egterg:
     cdiaghg      :      2.11s CPU      2.15s WALL (   11553 calls)
     h_psi        :     46.08s CPU     46.99s WALL (   12561 calls)
     s_psi        :      1.21s CPU      1.23s WALL (   12561 calls)
     g_psi        :      0.31s CPU      0.32s WALL (    8529 calls)

     Called by h_psi:
     h_psi:calbec :      1.54s CPU      1.56s WALL (   12561 calls)
     vloc_psi     :     42.94s CPU     43.80s WALL (   12561 calls)
     add_vuspsi   :      1.25s CPU      1.28s WALL (   12561 calls)

     General routines
     calbec       :      2.93s CPU      2.97s WALL (   24657 calls)
     fft          :      0.14s CPU      0.14s WALL (      37 calls)
     ffts         :      0.00s CPU      0.00s WALL (       7 calls)
     fftw         :     42.58s CPU     43.41s WALL (  318100 calls)

     Parallel routines

     PWSCF        :   1m13.59s CPU   1m15.00s WALL


   This run was terminated on:  21:39:32   8Oct2025            

=------------------------------------------------------------------------------=
   JOB DONE.
=------------------------------------------------------------------------------=
