
     Program PWSCF v.7.4.1 starts on 20Oct2025 at 17:50:21 

     This program is part of the open-source Quantum ESPRESSO suite
     for quantum simulation of materials; please cite
         "P. Giannozzi et al., J. Phys.:Condens. Matter 21 395502 (2009);
         "P. Giannozzi et al., J. Phys.:Condens. Matter 29 465901 (2017);
         "P. Giannozzi et al., J. Chem. Phys. 152 154105 (2020);
          URL http://www.quantum-espresso.org", 
     in publications or presentations arising from this work. More details at
     http://www.quantum-espresso.org/quote

     Parallel version (MPI), running on     2 processors

     MPI processes distributed on     1 nodes
     271 MiB available memory on the printing compute node when the environment starts

     Waiting for input...
     Reading input from standard input

     Current dimensions of program PWSCF are:
     Max number of different atomic species (ntypx) = 10
     Max number of k-points (npk) =  40000
     Max angular momentum in pseudopotentials (lmaxx) =  4
     file Fe.pbe-nd-rrkjus.UPF: wavefunction(s)  4S renormalized
     Message from routine find_sym:
     Not a group! Trying with lower acceptance parameter...
     Message from routine find_sym:
     Symmetry operations form a group
     Message from routine setup:
     using ibrav=0 with symmetry is DISCOURAGED, use correct ibrav instead

     R & G space division:  proc/nbgrp/npool/nimage =       2
     Subspace diagonalization in iterative solution of the eigenvalue problem:
     a serial algorithm will be used


     Parallelization info
     --------------------
     sticks:   dense  smooth     PW     G-vecs:    dense   smooth      PW
     Min         273     105     30                 7823     1983     346
     Max         274     106     31                 7826     1986     353
     Sum         547     211     61                15649     3969     699

     Using Slab Decomposition



     bravais-lattice index     =            0
     lattice parameter (alat)  =       5.1023  a.u.
     unit-cell volume          =     178.9386 (a.u.)^3
     number of atoms/cell      =            2
     number of atomic types    =            1
     number of electrons       =        16.00
     number of Kohn-Sham states=           12
     kinetic-energy cutoff     =      30.0000  Ry
     charge density cutoff     =     300.0000  Ry
     scf convergence threshold =      1.0E-07
     mixing beta               =       0.5000
     number of iterations used =            8  plain     mixing
     energy convergence thresh.=      1.0E-04
     force convergence thresh. =      1.0E-03
     press convergence thresh. =      5.0E-01
     Exchange-correlation=  SLA  PW   PBE  PBE
                           (   1   4   3   4   0   0   0)
     nstep                     =           50


     celldm(1)=   5.102261  celldm(2)=   0.000000  celldm(3)=   0.000000
     celldm(4)=   0.000000  celldm(5)=   0.000000  celldm(6)=   0.000000

     crystal axes: (cart. coord. in units of alat)
               a(1) = (   1.000000   0.000000   0.000000 )  
               a(2) = (  -0.500000   0.866025   0.000000 )  
               a(3) = (   0.000000   0.000000   1.555556 )  

     reciprocal axes: (cart. coord. in units 2 pi/alat)
               b(1) = (  1.000000  0.577350 -0.000000 )  
               b(2) = (  0.000000  1.154701  0.000000 )  
               b(3) = (  0.000000 -0.000000  0.642857 )  


     PseudoPot. # 1 for Fe read from file:
     /home/bond/Software/QE/qe-7.4.1/pseudo/Fe.pbe-nd-rrkjus.UPF
     MD5 check sum: 398036227a04b607635f6f5e8dfd8242
     Pseudo is Ultrasoft + core correction, Zval =  8.0
     Generated by new atomic code, or converted to UPF format
     Using radial grid of  957 points,  6 beta functions with: 
                l(1) =   0
                l(2) =   0
                l(3) =   1
                l(4) =   1
                l(5) =   2
                l(6) =   2
     Q(r) pseudized with 0 coefficients 


     atomic species   valence    mass     pseudopotential
     Fe                8.00    55.84500     Fe( 1.00)

     Starting magnetic structure 
     atomic species   magnetization
     Fe              0.700

      4 Sym. Ops. (no inversion) found



   Cartesian axes

     site n.     atom                  positions (alat units)
         1        Fe     tau(   1) = (   0.0000000   0.0000000   0.0000000  )
         2        Fe     tau(   2) = (   0.0000000   0.5773519   0.7777778  )

     number of k points=     3  Methfessel-Paxton smearing, width (Ry)=  0.0200
                       cart. coord. in units 2pi/alat
        k(    1) = (   0.0000000   0.0000000   0.0000000), wk =   0.2500000
        k(    2) = (   0.0000000  -0.5773503   0.0000000), wk =   0.2500000
        k(    3) = (  -0.5000000   0.2886751   0.0000000), wk =   0.5000000

     Dense  grid:    15649 G-vectors     FFT dimensions: (  30,  30,  45)

     Smooth grid:     3969 G-vectors     FFT dimensions: (  18,  18,  27)

     Estimated max dynamical RAM per process >      35.23 MB

     Estimated total dynamical RAM >      70.45 MB

     Check: negative core charge=   -0.000008
     Generating pointlists ...
     new r_m :   0.3996 (alat units)  2.0387 (a.u.) for type    1

     Initial potential from superposition of free atoms

     starting charge      15.9987, renormalised to      16.0000
     Starting wfcs are   12 randomized atomic wfcs

     total cpu time spent up to now is        0.7 secs

     Self-consistent Calculation

     iteration #  1     ecut=    30.00 Ry     beta= 0.50
     Davidson diagonalization with overlap
     ethr =  1.00E-02,  avg # of iterations =  3.0

     total cpu time spent up to now is        0.8 secs

     total energy              =    -111.28768205 Ry
     estimated scf accuracy    <       0.40617672 Ry

     total magnetization       =     7.12 Bohr mag/cell
     absolute magnetization    =     7.12 Bohr mag/cell

     iteration #  2     ecut=    30.00 Ry     beta= 0.50
     Davidson diagonalization with overlap
     ethr =  2.54E-03,  avg # of iterations =  2.0

     total cpu time spent up to now is        0.9 secs

     total energy              =    -111.45590673 Ry
     estimated scf accuracy    <       0.04867207 Ry

     total magnetization       =     6.00 Bohr mag/cell
     absolute magnetization    =     6.04 Bohr mag/cell

     iteration #  3     ecut=    30.00 Ry     beta= 0.50
     Davidson diagonalization with overlap
     ethr =  3.04E-04,  avg # of iterations =  3.2

     total cpu time spent up to now is        1.0 secs

     total energy              =    -111.48046631 Ry
     estimated scf accuracy    <       0.01422213 Ry

     total magnetization       =     6.51 Bohr mag/cell
     absolute magnetization    =     6.52 Bohr mag/cell

     iteration #  4     ecut=    30.00 Ry     beta= 0.50
     Davidson diagonalization with overlap
     ethr =  8.89E-05,  avg # of iterations =  2.7

     total cpu time spent up to now is        1.2 secs

     total energy              =    -111.49167387 Ry
     estimated scf accuracy    <       0.06050076 Ry

     total magnetization       =     5.35 Bohr mag/cell
     absolute magnetization    =     5.51 Bohr mag/cell

     iteration #  5     ecut=    30.00 Ry     beta= 0.50
     Davidson diagonalization with overlap
     ethr =  8.89E-05,  avg # of iterations =  1.0

     total cpu time spent up to now is        1.3 secs

     total energy              =    -111.49604818 Ry
     estimated scf accuracy    <       0.06250353 Ry

     total magnetization       =     5.26 Bohr mag/cell
     absolute magnetization    =     5.44 Bohr mag/cell

     iteration #  6     ecut=    30.00 Ry     beta= 0.50
     Davidson diagonalization with overlap
     ethr =  8.89E-05,  avg # of iterations =  1.0

     total cpu time spent up to now is        1.4 secs

     total energy              =    -111.50301891 Ry
     estimated scf accuracy    <       0.01572282 Ry

     total magnetization       =     5.14 Bohr mag/cell
     absolute magnetization    =     5.36 Bohr mag/cell

     iteration #  7     ecut=    30.00 Ry     beta= 0.50
     Davidson diagonalization with overlap
     ethr =  8.89E-05,  avg # of iterations =  1.0

     total cpu time spent up to now is        1.5 secs

     total energy              =    -111.50464173 Ry
     estimated scf accuracy    <       0.01268495 Ry

     total magnetization       =     4.78 Bohr mag/cell
     absolute magnetization    =     5.16 Bohr mag/cell

     iteration #  8     ecut=    30.00 Ry     beta= 0.50
     Davidson diagonalization with overlap
     ethr =  7.93E-05,  avg # of iterations =  1.0

     total cpu time spent up to now is        1.6 secs

     total energy              =    -111.50638727 Ry
     estimated scf accuracy    <       0.00090389 Ry

     total magnetization       =     4.82 Bohr mag/cell
     absolute magnetization    =     5.20 Bohr mag/cell

     iteration #  9     ecut=    30.00 Ry     beta= 0.50
     Davidson diagonalization with overlap
     ethr =  5.65E-06,  avg # of iterations =  3.0

     total cpu time spent up to now is        1.8 secs

     total energy              =    -111.50684485 Ry
     estimated scf accuracy    <       0.00027434 Ry

     total magnetization       =     4.71 Bohr mag/cell
     absolute magnetization    =     5.20 Bohr mag/cell

     iteration # 10     ecut=    30.00 Ry     beta= 0.50
     Davidson diagonalization with overlap
     ethr =  1.71E-06,  avg # of iterations =  2.5

     total cpu time spent up to now is        1.9 secs

     total energy              =    -111.50642392 Ry
     estimated scf accuracy    <       0.00024834 Ry

     total magnetization       =     4.69 Bohr mag/cell
     absolute magnetization    =     5.23 Bohr mag/cell

     iteration # 11     ecut=    30.00 Ry     beta= 0.50
     Davidson diagonalization with overlap
     ethr =  1.55E-06,  avg # of iterations =  1.0

     total cpu time spent up to now is        2.0 secs

     total energy              =    -111.50686488 Ry
     estimated scf accuracy    <       0.00023946 Ry

     total magnetization       =     4.76 Bohr mag/cell
     absolute magnetization    =     5.22 Bohr mag/cell

     iteration # 12     ecut=    30.00 Ry     beta= 0.50
     Davidson diagonalization with overlap
     ethr =  1.50E-06,  avg # of iterations =  1.0

     total cpu time spent up to now is        2.1 secs

     total energy              =    -111.50291176 Ry
     estimated scf accuracy    <       0.00016191 Ry

     total magnetization       =     4.67 Bohr mag/cell
     absolute magnetization    =     5.20 Bohr mag/cell

     iteration # 13     ecut=    30.00 Ry     beta= 0.50
     Davidson diagonalization with overlap
     ethr =  1.01E-06,  avg # of iterations =  4.0

     total cpu time spent up to now is        2.3 secs

     total energy              =    -111.50453926 Ry
     estimated scf accuracy    <       0.00013358 Ry

     total magnetization       =     4.93 Bohr mag/cell
     absolute magnetization    =     5.15 Bohr mag/cell

     iteration # 14     ecut=    30.00 Ry     beta= 0.50
     Davidson diagonalization with overlap
     ethr =  8.35E-07,  avg # of iterations =  3.0

     total cpu time spent up to now is        2.4 secs

     total energy              =    -111.50054012 Ry
     estimated scf accuracy    <       0.00025089 Ry

     total magnetization       =     4.97 Bohr mag/cell
     absolute magnetization    =     5.16 Bohr mag/cell

     iteration # 15     ecut=    30.00 Ry     beta= 0.50
     Davidson diagonalization with overlap
     ethr =  8.35E-07,  avg # of iterations =  4.8

     total cpu time spent up to now is        2.5 secs

     total energy              =    -111.50712303 Ry
     estimated scf accuracy    <       0.00027934 Ry

     total magnetization       =     4.51 Bohr mag/cell
     absolute magnetization    =     5.37 Bohr mag/cell

     iteration # 16     ecut=    30.00 Ry     beta= 0.50
     Davidson diagonalization with overlap
     ethr =  8.35E-07,  avg # of iterations =  3.2

     total cpu time spent up to now is        2.7 secs

     total energy              =    -111.50772953 Ry
     estimated scf accuracy    <       0.00011609 Ry

     total magnetization       =     4.61 Bohr mag/cell
     absolute magnetization    =     5.27 Bohr mag/cell

     iteration # 17     ecut=    30.00 Ry     beta= 0.50
     Davidson diagonalization with overlap
     ethr =  7.26E-07,  avg # of iterations =  1.0

     total cpu time spent up to now is        2.8 secs

     total energy              =    -111.50812357 Ry
     estimated scf accuracy    <       0.00012314 Ry

     total magnetization       =     4.59 Bohr mag/cell
     absolute magnetization    =     5.28 Bohr mag/cell

     iteration # 18     ecut=    30.00 Ry     beta= 0.50
     Davidson diagonalization with overlap
     ethr =  7.26E-07,  avg # of iterations =  4.0

     total cpu time spent up to now is        2.9 secs

     total energy              =    -111.50930756 Ry
     estimated scf accuracy    <       0.00038994 Ry

     total magnetization       =     4.48 Bohr mag/cell
     absolute magnetization    =     5.44 Bohr mag/cell

     iteration # 19     ecut=    30.00 Ry     beta= 0.50
     Davidson diagonalization with overlap
     ethr =  7.26E-07,  avg # of iterations =  1.0

     total cpu time spent up to now is        3.0 secs

     total energy              =    -111.50908039 Ry
     estimated scf accuracy    <       0.00017999 Ry

     total magnetization       =     4.48 Bohr mag/cell
     absolute magnetization    =     5.44 Bohr mag/cell

     iteration # 20     ecut=    30.00 Ry     beta= 0.50
     Davidson diagonalization with overlap
     ethr =  7.26E-07,  avg # of iterations =  1.3

     total cpu time spent up to now is        3.1 secs

     total energy              =    -111.50191359 Ry
     estimated scf accuracy    <       0.00008110 Ry

     total magnetization       =     4.49 Bohr mag/cell
     absolute magnetization    =     5.42 Bohr mag/cell

     iteration # 21     ecut=    30.00 Ry     beta= 0.50
     Davidson diagonalization with overlap
     ethr =  5.07E-07,  avg # of iterations =  5.5

     total cpu time spent up to now is        3.3 secs

     total energy              =    -111.50895493 Ry
     estimated scf accuracy    <       0.00108492 Ry

     total magnetization       =     4.50 Bohr mag/cell
     absolute magnetization    =     5.67 Bohr mag/cell

     iteration # 22     ecut=    30.00 Ry     beta= 0.50
     Davidson diagonalization with overlap
     ethr =  5.07E-07,  avg # of iterations =  4.5

     total cpu time spent up to now is        3.4 secs

     total energy              =    -111.50523809 Ry
     estimated scf accuracy    <       0.00120210 Ry

     total magnetization       =     4.49 Bohr mag/cell
     absolute magnetization    =     5.56 Bohr mag/cell

     iteration # 23     ecut=    30.00 Ry     beta= 0.50
     Davidson diagonalization with overlap
     ethr =  5.07E-07,  avg # of iterations =  4.8

     total cpu time spent up to now is        3.6 secs

     total energy              =    -111.50616808 Ry
     estimated scf accuracy    <       0.00030876 Ry

     total magnetization       =     4.61 Bohr mag/cell
     absolute magnetization    =     5.28 Bohr mag/cell

     iteration # 24     ecut=    30.00 Ry     beta= 0.50
     Davidson diagonalization with overlap
     ethr =  5.07E-07,  avg # of iterations =  3.7

     total cpu time spent up to now is        3.7 secs

     total energy              =    -111.50584138 Ry
     estimated scf accuracy    <       0.00019379 Ry

     total magnetization       =     4.74 Bohr mag/cell
     absolute magnetization    =     5.20 Bohr mag/cell

     iteration # 25     ecut=    30.00 Ry     beta= 0.50
     Davidson diagonalization with overlap
     ethr =  5.07E-07,  avg # of iterations =  2.7

     total cpu time spent up to now is        3.8 secs

     total energy              =    -111.50446930 Ry
     estimated scf accuracy    <       0.00004790 Ry

     total magnetization       =     4.83 Bohr mag/cell
     absolute magnetization    =     5.16 Bohr mag/cell

     iteration # 26     ecut=    30.00 Ry     beta= 0.50
     Davidson diagonalization with overlap
     ethr =  2.99E-07,  avg # of iterations =  4.2

     total cpu time spent up to now is        4.0 secs

     total energy              =    -111.50552123 Ry
     estimated scf accuracy    <       0.00016453 Ry

     total magnetization       =     4.95 Bohr mag/cell
     absolute magnetization    =     5.15 Bohr mag/cell

     iteration # 27     ecut=    30.00 Ry     beta= 0.50
     Davidson diagonalization with overlap
     ethr =  2.99E-07,  avg # of iterations =  3.0

     total cpu time spent up to now is        4.1 secs

     total energy              =    -111.50593234 Ry
     estimated scf accuracy    <       0.00009176 Ry

     total magnetization       =     4.91 Bohr mag/cell
     absolute magnetization    =     5.15 Bohr mag/cell

     iteration # 28     ecut=    30.00 Ry     beta= 0.50
     Davidson diagonalization with overlap
     ethr =  2.99E-07,  avg # of iterations =  3.8

     total cpu time spent up to now is        4.2 secs

     total energy              =    -111.50653326 Ry
     estimated scf accuracy    <       0.00005991 Ry

     total magnetization       =     4.81 Bohr mag/cell
     absolute magnetization    =     5.16 Bohr mag/cell

     iteration # 29     ecut=    30.00 Ry     beta= 0.50
     Davidson diagonalization with overlap
     ethr =  2.99E-07,  avg # of iterations =  3.0

     total cpu time spent up to now is        4.3 secs

     total energy              =    -111.50688887 Ry
     estimated scf accuracy    <       0.00004290 Ry

     total magnetization       =     4.76 Bohr mag/cell
     absolute magnetization    =     5.18 Bohr mag/cell

     iteration # 30     ecut=    30.00 Ry     beta= 0.50
     Davidson diagonalization with overlap
     ethr =  2.68E-07,  avg # of iterations =  3.3

     total cpu time spent up to now is        4.5 secs

     total energy              =    -111.50726141 Ry
     estimated scf accuracy    <       0.00004878 Ry

     total magnetization       =     4.69 Bohr mag/cell
     absolute magnetization    =     5.22 Bohr mag/cell

     iteration # 31     ecut=    30.00 Ry     beta= 0.50
     Davidson diagonalization with overlap
     ethr =  2.68E-07,  avg # of iterations =  2.3

     total cpu time spent up to now is        4.6 secs

     total energy              =    -111.50691781 Ry
     estimated scf accuracy    <       0.00005536 Ry

     total magnetization       =     4.65 Bohr mag/cell
     absolute magnetization    =     5.24 Bohr mag/cell

     iteration # 32     ecut=    30.00 Ry     beta= 0.50
     Davidson diagonalization with overlap
     ethr =  2.68E-07,  avg # of iterations =  2.7

     total cpu time spent up to now is        4.7 secs

     total energy              =    -111.50509414 Ry
     estimated scf accuracy    <       0.00007024 Ry

     total magnetization       =     4.70 Bohr mag/cell
     absolute magnetization    =     5.21 Bohr mag/cell

     iteration # 33     ecut=    30.00 Ry     beta= 0.50
     Davidson diagonalization with overlap
     ethr =  2.68E-07,  avg # of iterations =  4.0

     total cpu time spent up to now is        4.8 secs

     total energy              =    -111.50603566 Ry
     estimated scf accuracy    <       0.00011849 Ry

     total magnetization       =     4.86 Bohr mag/cell
     absolute magnetization    =     5.15 Bohr mag/cell

     iteration # 34     ecut=    30.00 Ry     beta= 0.50
     Davidson diagonalization with overlap
     ethr =  2.68E-07,  avg # of iterations =  4.2

     total cpu time spent up to now is        5.0 secs

     total energy              =    -111.50738292 Ry
     estimated scf accuracy    <       0.00010490 Ry

     total magnetization       =     4.67 Bohr mag/cell
     absolute magnetization    =     5.23 Bohr mag/cell

     iteration # 35     ecut=    30.00 Ry     beta= 0.50
     Davidson diagonalization with overlap
     ethr =  2.68E-07,  avg # of iterations =  2.0

     total cpu time spent up to now is        5.1 secs

     total energy              =    -111.49740435 Ry
     estimated scf accuracy    <       0.00013395 Ry

     total magnetization       =     4.64 Bohr mag/cell
     absolute magnetization    =     5.25 Bohr mag/cell

     iteration # 36     ecut=    30.00 Ry     beta= 0.50
     Davidson diagonalization with overlap
     ethr =  2.68E-07,  avg # of iterations =  5.3

     total cpu time spent up to now is        5.2 secs

     total energy              =    -111.49947573 Ry
     estimated scf accuracy    <       0.00044782 Ry

     total magnetization       =     4.99 Bohr mag/cell
     absolute magnetization    =     5.16 Bohr mag/cell

     iteration # 37     ecut=    30.00 Ry     beta= 0.50
     Davidson diagonalization with overlap
     ethr =  2.68E-07,  avg # of iterations =  5.5

     total cpu time spent up to now is        5.4 secs

     total energy              =    -111.49938231 Ry
     estimated scf accuracy    <       0.00036403 Ry

     total magnetization       =     4.51 Bohr mag/cell
     absolute magnetization    =     5.38 Bohr mag/cell

     iteration # 38     ecut=    30.00 Ry     beta= 0.50
     Davidson diagonalization with overlap
     ethr =  2.68E-07,  avg # of iterations =  6.2

     total cpu time spent up to now is        5.5 secs

     total energy              =    -111.49187313 Ry
     estimated scf accuracy    <       0.00094355 Ry

     total magnetization       =     4.50 Bohr mag/cell
     absolute magnetization    =     5.69 Bohr mag/cell

     iteration # 39     ecut=    30.00 Ry     beta= 0.50
     Davidson diagonalization with overlap
     ethr =  2.68E-07,  avg # of iterations =  6.5

     total cpu time spent up to now is        5.7 secs

     total energy              =    -111.50309932 Ry
     estimated scf accuracy    <       0.00005268 Ry

     total magnetization       =     4.88 Bohr mag/cell
     absolute magnetization    =     5.15 Bohr mag/cell

     iteration # 40     ecut=    30.00 Ry     beta= 0.50
     Davidson diagonalization with overlap
     ethr =  2.68E-07,  avg # of iterations =  5.3

     total cpu time spent up to now is        5.8 secs

     total energy              =    -111.50866055 Ry
     estimated scf accuracy    <       0.00012240 Ry

     total magnetization       =     4.51 Bohr mag/cell
     absolute magnetization    =     5.38 Bohr mag/cell

     iteration # 41     ecut=    30.00 Ry     beta= 0.50
     Davidson diagonalization with overlap
     ethr =  2.68E-07,  avg # of iterations =  1.0

     total cpu time spent up to now is        5.9 secs

     total energy              =    -111.50835503 Ry
     estimated scf accuracy    <       0.00009635 Ry

     total magnetization       =     4.51 Bohr mag/cell
     absolute magnetization    =     5.38 Bohr mag/cell

     iteration # 42     ecut=    30.00 Ry     beta= 0.50
     Davidson diagonalization with overlap
     ethr =  2.68E-07,  avg # of iterations =  2.3

     total cpu time spent up to now is        6.1 secs

     total energy              =    -111.50894182 Ry
     estimated scf accuracy    <       0.00008944 Ry

     total magnetization       =     4.53 Bohr mag/cell
     absolute magnetization    =     5.35 Bohr mag/cell

     iteration # 43     ecut=    30.00 Ry     beta= 0.50
     Davidson diagonalization with overlap
     ethr =  2.68E-07,  avg # of iterations =  4.0

     total cpu time spent up to now is        6.2 secs

     total energy              =    -111.50920411 Ry
     estimated scf accuracy    <       0.00010869 Ry

     total magnetization       =     4.48 Bohr mag/cell
     absolute magnetization    =     5.45 Bohr mag/cell

     iteration # 44     ecut=    30.00 Ry     beta= 0.50
     Davidson diagonalization with overlap
     ethr =  2.68E-07,  avg # of iterations =  1.8

     total cpu time spent up to now is        6.3 secs

     total energy              =    -111.50591834 Ry
     estimated scf accuracy    <       0.00008408 Ry

     total magnetization       =     4.48 Bohr mag/cell
     absolute magnetization    =     5.43 Bohr mag/cell

     iteration # 45     ecut=    30.00 Ry     beta= 0.50
     Davidson diagonalization with overlap
     ethr =  2.68E-07,  avg # of iterations =  4.5

     total cpu time spent up to now is        6.4 secs

     total energy              =    -111.50666083 Ry
     estimated scf accuracy    <       0.00005632 Ry

     total magnetization       =     4.64 Bohr mag/cell
     absolute magnetization    =     5.25 Bohr mag/cell

     iteration # 46     ecut=    30.00 Ry     beta= 0.50
     Davidson diagonalization with overlap
     ethr =  2.68E-07,  avg # of iterations =  2.8

     total cpu time spent up to now is        6.6 secs

     total energy              =    -111.50627446 Ry
     estimated scf accuracy    <       0.00007926 Ry

     total magnetization       =     4.71 Bohr mag/cell
     absolute magnetization    =     5.20 Bohr mag/cell

     iteration # 47     ecut=    30.00 Ry     beta= 0.50
     Davidson diagonalization with overlap
     ethr =  2.68E-07,  avg # of iterations =  3.3

     total cpu time spent up to now is        6.7 secs

     total energy              =    -111.46400297 Ry
     estimated scf accuracy    <       0.00003764 Ry

     total magnetization       =     4.78 Bohr mag/cell
     absolute magnetization    =     5.17 Bohr mag/cell

     iteration # 48     ecut=    30.00 Ry     beta= 0.50
     Davidson diagonalization with overlap
     ethr =  2.35E-07,  avg # of iterations =  6.7

     total cpu time spent up to now is        6.8 secs

     total energy              =    -111.49191213 Ry
     estimated scf accuracy    <       0.00207194 Ry

     total magnetization       =     4.96 Bohr mag/cell
     absolute magnetization    =     5.08 Bohr mag/cell

     iteration # 49     ecut=    30.00 Ry     beta= 0.50
     Davidson diagonalization with overlap
     ethr =  2.35E-07,  avg # of iterations =  4.8

     total cpu time spent up to now is        7.0 secs

     total energy              =    -111.49002815 Ry
     estimated scf accuracy    <       0.00112481 Ry

     total magnetization       =     4.97 Bohr mag/cell
     absolute magnetization    =     5.10 Bohr mag/cell

     iteration # 50     ecut=    30.00 Ry     beta= 0.50
     Davidson diagonalization with overlap
     ethr =  2.35E-07,  avg # of iterations =  3.5

     total cpu time spent up to now is        7.1 secs

     total energy              =    -111.49340319 Ry
     estimated scf accuracy    <       0.00132675 Ry

     total magnetization       =     4.97 Bohr mag/cell
     absolute magnetization    =     5.09 Bohr mag/cell

     iteration # 51     ecut=    30.00 Ry     beta= 0.50
     Davidson diagonalization with overlap
     ethr =  2.35E-07,  avg # of iterations =  7.0

     total cpu time spent up to now is        7.3 secs

     total energy              =    -111.50697675 Ry
     estimated scf accuracy    <       0.00019574 Ry

     total magnetization       =     4.55 Bohr mag/cell
     absolute magnetization    =     5.33 Bohr mag/cell

     iteration # 52     ecut=    30.00 Ry     beta= 0.50
     Davidson diagonalization with overlap
     ethr =  2.35E-07,  avg # of iterations =  3.7

     total cpu time spent up to now is        7.4 secs

     total energy              =    -111.50728975 Ry
     estimated scf accuracy    <       0.00009651 Ry

     total magnetization       =     4.65 Bohr mag/cell
     absolute magnetization    =     5.25 Bohr mag/cell

     iteration # 53     ecut=    30.00 Ry     beta= 0.50
     Davidson diagonalization with overlap
     ethr =  2.35E-07,  avg # of iterations =  1.0

     total cpu time spent up to now is        7.5 secs

     total energy              =    -111.50670757 Ry
     estimated scf accuracy    <       0.00012001 Ry

     total magnetization       =     4.66 Bohr mag/cell
     absolute magnetization    =     5.24 Bohr mag/cell

     iteration # 54     ecut=    30.00 Ry     beta= 0.50
     Davidson diagonalization with overlap
     ethr =  2.35E-07,  avg # of iterations =  3.3

     total cpu time spent up to now is        7.6 secs

     total energy              =    -111.49514586 Ry
     estimated scf accuracy    <       0.00013344 Ry

     total magnetization       =     4.73 Bohr mag/cell
     absolute magnetization    =     5.20 Bohr mag/cell

     iteration # 55     ecut=    30.00 Ry     beta= 0.50
     Davidson diagonalization with overlap
     ethr =  2.35E-07,  avg # of iterations =  6.0

     total cpu time spent up to now is        7.8 secs

     total energy              =    -111.49430997 Ry
     estimated scf accuracy    <       0.00070519 Ry

     total magnetization       =     4.50 Bohr mag/cell
     absolute magnetization    =     5.63 Bohr mag/cell

     iteration # 56     ecut=    30.00 Ry     beta= 0.50
     Davidson diagonalization with overlap
     ethr =  2.35E-07,  avg # of iterations =  6.5

     total cpu time spent up to now is        7.9 secs

     total energy              =    -111.50597328 Ry
     estimated scf accuracy    <       0.00007518 Ry

     total magnetization       =     4.87 Bohr mag/cell
     absolute magnetization    =     5.15 Bohr mag/cell

     iteration # 57     ecut=    30.00 Ry     beta= 0.50
     Davidson diagonalization with overlap
     ethr =  2.35E-07,  avg # of iterations =  2.0

     total cpu time spent up to now is        8.0 secs

     total energy              =    -111.50620329 Ry
     estimated scf accuracy    <       0.00005800 Ry

     total magnetization       =     4.85 Bohr mag/cell
     absolute magnetization    =     5.15 Bohr mag/cell

     iteration # 58     ecut=    30.00 Ry     beta= 0.50
     Davidson diagonalization with overlap
     ethr =  2.35E-07,  avg # of iterations =  3.0

     total cpu time spent up to now is        8.2 secs

     total energy              =    -111.50652243 Ry
     estimated scf accuracy    <       0.00008520 Ry

     total magnetization       =     4.81 Bohr mag/cell
     absolute magnetization    =     5.16 Bohr mag/cell

     iteration # 59     ecut=    30.00 Ry     beta= 0.50
     Davidson diagonalization with overlap
     ethr =  2.35E-07,  avg # of iterations =  4.2

     total cpu time spent up to now is        8.3 secs

     total energy              =    -111.50741571 Ry
     estimated scf accuracy    <       0.00008876 Ry

     total magnetization       =     4.68 Bohr mag/cell
     absolute magnetization    =     5.22 Bohr mag/cell

     iteration # 60     ecut=    30.00 Ry     beta= 0.50
     Davidson diagonalization with overlap
     ethr =  2.35E-07,  avg # of iterations =  3.0

     total cpu time spent up to now is        8.4 secs

     total energy              =    -111.50780894 Ry
     estimated scf accuracy    <       0.00007763 Ry

     total magnetization       =     4.60 Bohr mag/cell
     absolute magnetization    =     5.27 Bohr mag/cell

     iteration # 61     ecut=    30.00 Ry     beta= 0.50
     Davidson diagonalization with overlap
     ethr =  2.35E-07,  avg # of iterations =  2.0

     total cpu time spent up to now is        8.5 secs

     total energy              =    -111.50753539 Ry
     estimated scf accuracy    <       0.00008809 Ry

     total magnetization       =     4.58 Bohr mag/cell
     absolute magnetization    =     5.29 Bohr mag/cell

     iteration # 62     ecut=    30.00 Ry     beta= 0.50
     Davidson diagonalization with overlap
     ethr =  2.35E-07,  avg # of iterations =  2.0

     total cpu time spent up to now is        8.6 secs

     total energy              =    -111.50751609 Ry
     estimated scf accuracy    <       0.00008198 Ry

     total magnetization       =     4.61 Bohr mag/cell
     absolute magnetization    =     5.27 Bohr mag/cell

     iteration # 63     ecut=    30.00 Ry     beta= 0.50
     Davidson diagonalization with overlap
     ethr =  2.35E-07,  avg # of iterations =  1.0

     total cpu time spent up to now is        8.8 secs

     total energy              =    -111.50725063 Ry
     estimated scf accuracy    <       0.00008279 Ry

     total magnetization       =     4.61 Bohr mag/cell
     absolute magnetization    =     5.27 Bohr mag/cell

     iteration # 64     ecut=    30.00 Ry     beta= 0.50
     Davidson diagonalization with overlap
     ethr =  2.35E-07,  avg # of iterations =  2.7

     total cpu time spent up to now is        8.9 secs

     total energy              =    -111.49556007 Ry
     estimated scf accuracy    <       0.00007411 Ry

     total magnetization       =     4.65 Bohr mag/cell
     absolute magnetization    =     5.24 Bohr mag/cell

     iteration # 65     ecut=    30.00 Ry     beta= 0.50
     Davidson diagonalization with overlap
     ethr =  2.35E-07,  avg # of iterations =  5.8

     total cpu time spent up to now is        9.0 secs

     total energy              =    -111.46800014 Ry
     estimated scf accuracy    <       0.00062204 Ry

     total magnetization       =     5.00 Bohr mag/cell
     absolute magnetization    =     5.15 Bohr mag/cell

     iteration # 66     ecut=    30.00 Ry     beta= 0.50
     Davidson diagonalization with overlap
     ethr =  2.35E-07,  avg # of iterations =  6.7

     negative rho (up, down):  0.000E+00 4.725E-01

     total cpu time spent up to now is        9.2 secs

     total energy              =    -110.97984850 Ry
     estimated scf accuracy    <       0.00280357 Ry

     total magnetization       =     4.96 Bohr mag/cell
     absolute magnetization    =     5.07 Bohr mag/cell

     iteration # 67     ecut=    30.00 Ry     beta= 0.50
     Davidson diagonalization with overlap
     ethr =  2.35E-07,  avg # of iterations =  9.5

     total cpu time spent up to now is        9.3 secs

     total energy              =    -111.42631122 Ry
     estimated scf accuracy    <       0.06896075 Ry

     total magnetization       =     4.97 Bohr mag/cell
     absolute magnetization    =     5.02 Bohr mag/cell

     iteration # 68     ecut=    30.00 Ry     beta= 0.50
     Davidson diagonalization with overlap
     ethr =  2.35E-07,  avg # of iterations =  8.8

     total cpu time spent up to now is        9.5 secs

     total energy              =    -111.49592110 Ry
     estimated scf accuracy    <       0.00283611 Ry

     total magnetization       =     4.96 Bohr mag/cell
     absolute magnetization    =     5.06 Bohr mag/cell

     iteration # 69     ecut=    30.00 Ry     beta= 0.50
     Davidson diagonalization with overlap
     ethr =  2.35E-07,  avg # of iterations =  7.3

     total cpu time spent up to now is        9.7 secs

     total energy              =    -111.50513120 Ry
     estimated scf accuracy    <       0.00070060 Ry

     total magnetization       =     4.99 Bohr mag/cell
     absolute magnetization    =     5.15 Bohr mag/cell

     iteration # 70     ecut=    30.00 Ry     beta= 0.50
     Davidson diagonalization with overlap
     ethr =  2.35E-07,  avg # of iterations =  4.2

     total cpu time spent up to now is        9.8 secs

     total energy              =    -111.50410339 Ry
     estimated scf accuracy    <       0.00037231 Ry

     total magnetization       =     4.93 Bohr mag/cell
     absolute magnetization    =     5.15 Bohr mag/cell

     iteration # 71     ecut=    30.00 Ry     beta= 0.50
     Davidson diagonalization with overlap
     ethr =  2.35E-07,  avg # of iterations =  3.8

     total cpu time spent up to now is        9.9 secs

     total energy              =    -111.50395722 Ry
     estimated scf accuracy    <       0.00052992 Ry

     total magnetization       =     4.98 Bohr mag/cell
     absolute magnetization    =     5.16 Bohr mag/cell

     iteration # 72     ecut=    30.00 Ry     beta= 0.50
     Davidson diagonalization with overlap
     ethr =  2.35E-07,  avg # of iterations =  2.7

     total cpu time spent up to now is       10.0 secs

     total energy              =    -111.50357693 Ry
     estimated scf accuracy    <       0.00052966 Ry

     total magnetization       =     4.99 Bohr mag/cell
     absolute magnetization    =     5.16 Bohr mag/cell

     iteration # 73     ecut=    30.00 Ry     beta= 0.50
     Davidson diagonalization with overlap
     ethr =  2.35E-07,  avg # of iterations =  5.2

     total cpu time spent up to now is       10.2 secs

     total energy              =    -111.50701504 Ry
     estimated scf accuracy    <       0.00008871 Ry

     total magnetization       =     4.69 Bohr mag/cell
     absolute magnetization    =     5.22 Bohr mag/cell

     iteration # 74     ecut=    30.00 Ry     beta= 0.50
     Davidson diagonalization with overlap
     ethr =  2.35E-07,  avg # of iterations =  4.8

     total cpu time spent up to now is       10.3 secs

     total energy              =    -111.50914159 Ry
     estimated scf accuracy    <       0.00014651 Ry

     total magnetization       =     4.51 Bohr mag/cell
     absolute magnetization    =     5.38 Bohr mag/cell

     iteration # 75     ecut=    30.00 Ry     beta= 0.50
     Davidson diagonalization with overlap
     ethr =  2.35E-07,  avg # of iterations =  4.0

     total cpu time spent up to now is       10.4 secs

     total energy              =    -111.50953133 Ry
     estimated scf accuracy    <       0.00005302 Ry

     total magnetization       =     4.48 Bohr mag/cell
     absolute magnetization    =     5.46 Bohr mag/cell

     iteration # 76     ecut=    30.00 Ry     beta= 0.50
     Davidson diagonalization with overlap
     ethr =  2.35E-07,  avg # of iterations =  4.2

     total cpu time spent up to now is       10.6 secs

     total energy              =    -111.50423832 Ry
     estimated scf accuracy    <       0.00002347 Ry

     total magnetization       =     4.48 Bohr mag/cell
     absolute magnetization    =     5.55 Bohr mag/cell

     iteration # 77     ecut=    30.00 Ry     beta= 0.50
     Davidson diagonalization with overlap
     ethr =  1.47E-07,  avg # of iterations =  5.7

     total cpu time spent up to now is       10.7 secs

     total energy              =    -111.50676121 Ry
     estimated scf accuracy    <       0.00046043 Ry

     total magnetization       =     4.50 Bohr mag/cell
     absolute magnetization    =     5.70 Bohr mag/cell

     iteration # 78     ecut=    30.00 Ry     beta= 0.50
     Davidson diagonalization with overlap
     ethr =  1.47E-07,  avg # of iterations =  4.0

     total cpu time spent up to now is       10.8 secs

     total energy              =    -111.50289049 Ry
     estimated scf accuracy    <       0.00042359 Ry

     total magnetization       =     4.50 Bohr mag/cell
     absolute magnetization    =     5.67 Bohr mag/cell

     iteration # 79     ecut=    30.00 Ry     beta= 0.50
     Davidson diagonalization with overlap
     ethr =  1.47E-07,  avg # of iterations =  4.5

     total cpu time spent up to now is       11.0 secs

     total energy              =    -111.50837216 Ry
     estimated scf accuracy    <       0.00073345 Ry

     total magnetization       =     4.50 Bohr mag/cell
     absolute magnetization    =     5.73 Bohr mag/cell

     iteration # 80     ecut=    30.00 Ry     beta= 0.50
     Davidson diagonalization with overlap
     ethr =  1.47E-07,  avg # of iterations =  5.2

     total cpu time spent up to now is       11.1 secs

     total energy              =    -111.50959339 Ry
     estimated scf accuracy    <       0.00009495 Ry

     total magnetization       =     4.50 Bohr mag/cell
     absolute magnetization    =     5.62 Bohr mag/cell

     iteration # 81     ecut=    30.00 Ry     beta= 0.50
     Davidson diagonalization with overlap
     ethr =  1.47E-07,  avg # of iterations =  3.7

     total cpu time spent up to now is       11.2 secs

     total energy              =    -111.50976805 Ry
     estimated scf accuracy    <       0.00003275 Ry

     total magnetization       =     4.49 Bohr mag/cell
     absolute magnetization    =     5.59 Bohr mag/cell

     iteration # 82     ecut=    30.00 Ry     beta= 0.50
     Davidson diagonalization with overlap
     ethr =  1.47E-07,  avg # of iterations =  3.5

     total cpu time spent up to now is       11.4 secs

     total energy              =    -111.50981908 Ry
     estimated scf accuracy    <       0.00019628 Ry

     total magnetization       =     4.49 Bohr mag/cell
     absolute magnetization    =     5.56 Bohr mag/cell

     iteration # 83     ecut=    30.00 Ry     beta= 0.50
     Davidson diagonalization with overlap
     ethr =  1.47E-07,  avg # of iterations =  1.5

     total cpu time spent up to now is       11.5 secs

     total energy              =    -111.50982345 Ry
     estimated scf accuracy    <       0.00009119 Ry

     total magnetization       =     4.49 Bohr mag/cell
     absolute magnetization    =     5.55 Bohr mag/cell

     iteration # 84     ecut=    30.00 Ry     beta= 0.50
     Davidson diagonalization with overlap
     ethr =  1.47E-07,  avg # of iterations =  1.0

     total cpu time spent up to now is       11.6 secs

     total energy              =    -111.50982114 Ry
     estimated scf accuracy    <       0.00014710 Ry

     total magnetization       =     4.49 Bohr mag/cell
     absolute magnetization    =     5.56 Bohr mag/cell

     iteration # 85     ecut=    30.00 Ry     beta= 0.50
     Davidson diagonalization with overlap
     ethr =  1.47E-07,  avg # of iterations =  1.5

     total cpu time spent up to now is       11.7 secs

     total energy              =    -111.50982184 Ry
     estimated scf accuracy    <       0.00008617 Ry

     total magnetization       =     4.49 Bohr mag/cell
     absolute magnetization    =     5.55 Bohr mag/cell

     iteration # 86     ecut=    30.00 Ry     beta= 0.50
     Davidson diagonalization with overlap
     ethr =  1.47E-07,  avg # of iterations =  1.0

     total cpu time spent up to now is       11.8 secs

     total energy              =    -111.50980617 Ry
     estimated scf accuracy    <       0.00007345 Ry

     total magnetization       =     4.49 Bohr mag/cell
     absolute magnetization    =     5.55 Bohr mag/cell

     iteration # 87     ecut=    30.00 Ry     beta= 0.50
     Davidson diagonalization with overlap
     ethr =  1.47E-07,  avg # of iterations =  1.5

     total cpu time spent up to now is       12.0 secs

     total energy              =    -111.50981123 Ry
     estimated scf accuracy    <       0.00000686 Ry

     total magnetization       =     4.48 Bohr mag/cell
     absolute magnetization    =     5.55 Bohr mag/cell

     iteration # 88     ecut=    30.00 Ry     beta= 0.50
     Davidson diagonalization with overlap
     ethr =  4.29E-08,  avg # of iterations =  3.0

     total cpu time spent up to now is       12.1 secs

     total energy              =    -111.50981534 Ry
     estimated scf accuracy    <       0.00000165 Ry

     total magnetization       =     4.48 Bohr mag/cell
     absolute magnetization    =     5.55 Bohr mag/cell

     iteration # 89     ecut=    30.00 Ry     beta= 0.50
     Davidson diagonalization with overlap
     ethr =  1.03E-08,  avg # of iterations =  3.0

     total cpu time spent up to now is       12.2 secs

     total energy              =    -111.50981420 Ry
     estimated scf accuracy    <       0.00000926 Ry

     total magnetization       =     4.48 Bohr mag/cell
     absolute magnetization    =     5.55 Bohr mag/cell

     iteration # 90     ecut=    30.00 Ry     beta= 0.50
     Davidson diagonalization with overlap
     ethr =  1.03E-08,  avg # of iterations =  1.3

     total cpu time spent up to now is       12.3 secs

     total energy              =    -111.50981451 Ry
     estimated scf accuracy    <       0.00000354 Ry

     total magnetization       =     4.48 Bohr mag/cell
     absolute magnetization    =     5.55 Bohr mag/cell

     iteration # 91     ecut=    30.00 Ry     beta= 0.50
     Davidson diagonalization with overlap
     ethr =  1.03E-08,  avg # of iterations =  1.0

     total cpu time spent up to now is       12.4 secs

     total energy              =    -111.50981455 Ry
     estimated scf accuracy    <       0.00000369 Ry

     total magnetization       =     4.48 Bohr mag/cell
     absolute magnetization    =     5.55 Bohr mag/cell

     iteration # 92     ecut=    30.00 Ry     beta= 0.50
     Davidson diagonalization with overlap
     ethr =  1.03E-08,  avg # of iterations =  1.0

     total cpu time spent up to now is       12.6 secs

     total energy              =    -111.50981465 Ry
     estimated scf accuracy    <       0.00000365 Ry

     total magnetization       =     4.48 Bohr mag/cell
     absolute magnetization    =     5.55 Bohr mag/cell

     iteration # 93     ecut=    30.00 Ry     beta= 0.50
     Davidson diagonalization with overlap
     ethr =  1.03E-08,  avg # of iterations =  1.0

     total cpu time spent up to now is       12.7 secs

     total energy              =    -111.50981470 Ry
     estimated scf accuracy    <       0.00000384 Ry

     total magnetization       =     4.48 Bohr mag/cell
     absolute magnetization    =     5.55 Bohr mag/cell

     iteration # 94     ecut=    30.00 Ry     beta= 0.50
     Davidson diagonalization with overlap
     ethr =  1.03E-08,  avg # of iterations =  1.0

     total cpu time spent up to now is       12.8 secs

     total energy              =    -111.50981467 Ry
     estimated scf accuracy    <       0.00000406 Ry

     total magnetization       =     4.48 Bohr mag/cell
     absolute magnetization    =     5.55 Bohr mag/cell

     iteration # 95     ecut=    30.00 Ry     beta= 0.50
     Davidson diagonalization with overlap
     ethr =  1.03E-08,  avg # of iterations =  1.0

     total cpu time spent up to now is       12.9 secs

     total energy              =    -111.50981413 Ry
     estimated scf accuracy    <       0.00000414 Ry

     total magnetization       =     4.48 Bohr mag/cell
     absolute magnetization    =     5.55 Bohr mag/cell

     iteration # 96     ecut=    30.00 Ry     beta= 0.50
     Davidson diagonalization with overlap
     ethr =  1.03E-08,  avg # of iterations =  1.0

     total cpu time spent up to now is       13.0 secs

     total energy              =    -111.50981365 Ry
     estimated scf accuracy    <       0.00000174 Ry

     total magnetization       =     4.48 Bohr mag/cell
     absolute magnetization    =     5.55 Bohr mag/cell

     iteration # 97     ecut=    30.00 Ry     beta= 0.50
     Davidson diagonalization with overlap
     ethr =  1.03E-08,  avg # of iterations =  2.2

     Magnetic moment per site  (integrated on atomic sphere of radius R)
     atom   1 (R=0.400)  charge=  6.6376  magn=  2.4750
     atom   2 (R=0.400)  charge=  6.6372  magn=  2.4747

     total cpu time spent up to now is       13.2 secs

     End of self-consistent calculation

 ------ SPIN UP ------------


          k = 0.0000 0.0000 0.0000 (   523 PWs)   bands (ev):

     3.7189   6.8457   8.8581   8.8582   9.1468   9.1468   9.1888   9.6805
     9.6805  10.7422  10.7422  12.2038

          k = 0.0000-0.5774 0.0000 (   492 PWs)   bands (ev):

     7.1238   7.2091   7.7484   8.9912   9.1974   9.4263   9.4681  10.3654
    10.5207  10.9807  12.3955  13.9979

          k =-0.5000 0.2887 0.0000 (   492 PWs)   bands (ev):

     7.1239   7.2091   7.7484   8.9912   9.1973   9.4263   9.4681  10.3653
    10.5206  10.9807  12.3955  13.9978

 ------ SPIN DOWN ----------


          k = 0.0000 0.0000 0.0000 (   523 PWs)   bands (ev):

     3.3697   8.3736  11.5419  11.5662  11.5662  11.9719  11.9719  11.9728
    12.2105  12.2105  13.4872  13.4872

          k = 0.0000-0.5774 0.0000 (   492 PWs)   bands (ev):

     8.3184   8.9901   9.3368   9.9321  11.2995  11.4871  12.0942  13.5053
    13.6979  13.8065  14.5866  15.7229

          k =-0.5000 0.2887 0.0000 (   492 PWs)   bands (ev):

     8.3184   8.9901   9.3368   9.9321  11.2995  11.4871  12.0941  13.5053
    13.6979  13.8065  14.5867  15.7229

     the Fermi energy is    11.7723 ev

!    total energy              =    -111.50981389 Ry
     estimated scf accuracy    <       0.00000008 Ry
     smearing contrib. (-TS)   =       0.00345306 Ry
     internal energy E=F+TS    =    -111.51326696 Ry

     The total energy is F=E-TS. E is the sum of the following terms:
     one-electron contribution =       9.04972869 Ry
     hartree contribution      =      14.90973199 Ry
     xc contribution           =     -52.84436359 Ry
     ewald contribution        =     -82.62836405 Ry

     total magnetization       =     4.48 Bohr mag/cell
     absolute magnetization    =     5.55 Bohr mag/cell

     convergence has been achieved in  97 iterations

     Forces acting on atoms (cartesian axes, Ry/au):

     atom    1 type  1   force =     0.00000000    0.00000094    0.00000000
     atom    2 type  1   force =     0.00000000   -0.00000094    0.00000000

     Total force =     0.000001     Total SCF correction =     0.000001
     SCF correction compared to forces is large: reduce conv_thr to get better values


     Computing stress (Cartesian axis) and pressure

          total   stress  (Ry/bohr**3)                   (kbar)     P=     -142.22
  -0.00051425   0.00000000   0.00000000          -75.65        0.00        0.00
   0.00000000  -0.00051438   0.00000000            0.00      -75.67        0.00
   0.00000000   0.00000000  -0.00187175            0.00        0.00     -275.34


     BFGS Geometry Optimization
     Energy error            =      1.9E-02 Ry
     Gradient error          =      9.4E-07 Ry/Bohr
     Cell gradient error     =      2.8E+02 kbar

     number of scf cycles    =   1
     number of bfgs steps    =   0

     enthalpy           new  =    -111.5098138948 Ry

     new trust radius        =       0.1251902037 bohr
     new conv_thr            =       0.0000001000 Ry

     new unit-cell volume =    166.20738 a.u.^3 (    24.62939 Ang^3 )
     density =      7.53026 g/cm^3

CELL_PARAMETERS (angstrom)
   2.665288058   0.000000000   0.000000000
  -1.332644029   2.308199810   0.000000000
   0.000000000   0.000000000   4.003466035

ATOMIC_POSITIONS (angstrom)
Fe               0.0000000000        0.0000004920        0.0000000000
Fe               0.0000000000        1.5388035997        2.0017330177


     Message from routine punch:
     Nothing written, as per user request (disk_io='none')
     NEW-OLD atomic charge density approx. for the potential
     New effective cutoffs (rho, wfc):  323.70   31.77

     Check: negative core charge=   -0.000004
     Generating pointlists ...
     new r_m :   0.3857 (alat units)  1.9681 (a.u.) for type    1

     total cpu time spent up to now is       13.7 secs

     Self-consistent Calculation

     iteration #  1     ecut=    30.00 Ry     beta= 0.50
     Davidson diagonalization with overlap
     ethr =  1.00E-06,  avg # of iterations =  7.5

     total cpu time spent up to now is       13.9 secs

     total energy              =    -111.52292533 Ry
     estimated scf accuracy    <       0.00395897 Ry

     total magnetization       =     4.50 Bohr mag/cell
     absolute magnetization    =     5.25 Bohr mag/cell

     iteration #  2     ecut=    30.00 Ry     beta= 0.50
     Davidson diagonalization with overlap
     ethr =  2.47E-05,  avg # of iterations =  2.3

     total cpu time spent up to now is       14.0 secs

     total energy              =    -111.52356828 Ry
     estimated scf accuracy    <       0.00362845 Ry

     total magnetization       =     4.50 Bohr mag/cell
     absolute magnetization    =     5.27 Bohr mag/cell

     iteration #  3     ecut=    30.00 Ry     beta= 0.50
     Davidson diagonalization with overlap
     ethr =  2.27E-05,  avg # of iterations =  1.0

     total cpu time spent up to now is       14.1 secs

     total energy              =    -111.52371427 Ry
     estimated scf accuracy    <       0.01385398 Ry

     total magnetization       =     4.50 Bohr mag/cell
     absolute magnetization    =     5.19 Bohr mag/cell

     iteration #  4     ecut=    30.00 Ry     beta= 0.50
     Davidson diagonalization with overlap
     ethr =  2.27E-05,  avg # of iterations =  1.0

     total cpu time spent up to now is       14.2 secs

     total energy              =    -111.52471684 Ry
     estimated scf accuracy    <       0.00064563 Ry

     total magnetization       =     4.50 Bohr mag/cell
     absolute magnetization    =     5.17 Bohr mag/cell

     iteration #  5     ecut=    30.00 Ry     beta= 0.50
     Davidson diagonalization with overlap
     ethr =  4.04E-06,  avg # of iterations =  3.3

     total cpu time spent up to now is       14.3 secs

     total energy              =    -111.52553014 Ry
     estimated scf accuracy    <       0.00022158 Ry

     total magnetization       =     4.49 Bohr mag/cell
     absolute magnetization    =     5.02 Bohr mag/cell

     iteration #  6     ecut=    30.00 Ry     beta= 0.50
     Davidson diagonalization with overlap
     ethr =  1.38E-06,  avg # of iterations =  1.5

     total cpu time spent up to now is       14.5 secs

     total energy              =    -111.52553510 Ry
     estimated scf accuracy    <       0.00002778 Ry

     total magnetization       =     4.49 Bohr mag/cell
     absolute magnetization    =     5.02 Bohr mag/cell

     iteration #  7     ecut=    30.00 Ry     beta= 0.50
     Davidson diagonalization with overlap
     ethr =  1.74E-07,  avg # of iterations =  3.5

     total cpu time spent up to now is       14.6 secs

     total energy              =    -111.52560037 Ry
     estimated scf accuracy    <       0.00003109 Ry

     total magnetization       =     4.49 Bohr mag/cell
     absolute magnetization    =     4.98 Bohr mag/cell

     iteration #  8     ecut=    30.00 Ry     beta= 0.50
     Davidson diagonalization with overlap
     ethr =  1.74E-07,  avg # of iterations =  1.3

     total cpu time spent up to now is       14.7 secs

     total energy              =    -111.52559977 Ry
     estimated scf accuracy    <       0.00000510 Ry

     total magnetization       =     4.49 Bohr mag/cell
     absolute magnetization    =     4.99 Bohr mag/cell

     iteration #  9     ecut=    30.00 Ry     beta= 0.50
     Davidson diagonalization with overlap
     ethr =  3.19E-08,  avg # of iterations =  2.3

     total cpu time spent up to now is       14.9 secs

     total energy              =    -111.52560342 Ry
     estimated scf accuracy    <       0.00000075 Ry

     total magnetization       =     4.49 Bohr mag/cell
     absolute magnetization    =     4.98 Bohr mag/cell

     iteration # 10     ecut=    30.00 Ry     beta= 0.50
     Davidson diagonalization with overlap
     ethr =  4.68E-09,  avg # of iterations =  4.0

     total cpu time spent up to now is       15.0 secs

     total energy              =    -111.52560416 Ry
     estimated scf accuracy    <       0.00000144 Ry

     total magnetization       =     4.49 Bohr mag/cell
     absolute magnetization    =     4.98 Bohr mag/cell

     iteration # 11     ecut=    30.00 Ry     beta= 0.50
     Davidson diagonalization with overlap
     ethr =  4.68E-09,  avg # of iterations =  2.0

     Magnetic moment per site  (integrated on atomic sphere of radius R)
     atom   1 (R=0.386)  charge=  6.5636  magn=  2.3582
     atom   2 (R=0.386)  charge=  6.5641  magn=  2.3583

     total cpu time spent up to now is       15.1 secs

     End of self-consistent calculation

 ------ SPIN UP ------------


          k = 0.0000 0.0000 0.0000 (   523 PWs)   bands (ev):

     4.3383   7.8593  10.1894  10.1894  10.5750  10.5750  10.6703  10.8785
    10.8786  12.2320  12.2320  13.4881

          k = 0.0000-0.5849 0.0000 (   492 PWs)   bands (ev):

     8.1560   8.1867   8.7289  10.0684  10.1613  10.7538  10.9112  11.8652
    12.0832  12.5691  13.7718  15.4745

          k =-0.5065 0.2924 0.0000 (   492 PWs)   bands (ev):

     8.1560   8.1867   8.7289  10.0684  10.1612  10.7538  10.9112  11.8652
    12.0832  12.5691  13.7718  15.4744

 ------ SPIN DOWN ----------


          k = 0.0000 0.0000 0.0000 (   523 PWs)   bands (ev):

     4.2856   9.3155  12.6836  12.6837  13.1866  13.1866  13.2537  13.2931
    13.2931  13.2964  14.8539  14.8540

          k = 0.0000-0.5849 0.0000 (   492 PWs)   bands (ev):

     9.2707   9.9108  10.3537  10.9075  12.2868  12.7864  13.3830  14.7694
    15.0272  15.2755  15.9665  17.2195

          k =-0.5065 0.2924 0.0000 (   492 PWs)   bands (ev):

     9.2706   9.9108  10.3537  10.9075  12.2869  12.7863  13.3829  14.7694
    15.0273  15.2755  15.9665  17.2195

     the Fermi energy is    13.1205 ev

!    total energy              =    -111.52560440 Ry
     estimated scf accuracy    <       0.00000002 Ry
     smearing contrib. (-TS)   =       0.00101493 Ry
     internal energy E=F+TS    =    -111.52661934 Ry

     The total energy is F=E-TS. E is the sum of the following terms:
     one-electron contribution =      11.75207555 Ry
     hartree contribution      =      14.30793903 Ry
     xc contribution           =     -52.95002521 Ry
     ewald contribution        =     -84.63660871 Ry

     total magnetization       =     4.49 Bohr mag/cell
     absolute magnetization    =     4.98 Bohr mag/cell

     convergence has been achieved in  11 iterations

     Forces acting on atoms (cartesian axes, Ry/au):

     atom    1 type  1   force =     0.00000000   -0.00000115    0.00000000
     atom    2 type  1   force =     0.00000000    0.00000115    0.00000000

     Total force =     0.000002     Total SCF correction =     0.000000


     Computing stress (Cartesian axis) and pressure

          total   stress  (Ry/bohr**3)                   (kbar)     P=      -57.02
   0.00046872  -0.00000000   0.00000000           68.95       -0.00        0.00
  -0.00000000   0.00046856   0.00000000           -0.00       68.93        0.00
   0.00000000   0.00000000  -0.00210018            0.00        0.00     -308.95

     Energy error            =      1.6E-02 Ry
     Gradient error          =      1.2E-06 Ry/Bohr
     Cell gradient error     =      3.1E+02 kbar

     number of scf cycles    =   2
     number of bfgs steps    =   1

     enthalpy           old  =    -111.5098138948 Ry
     enthalpy           new  =    -111.5256044029 Ry

     CASE: enthalpy          _new < enthalpy          _old


     WARNING: bfgs curvature condition failed, Theta= 0.955
     new trust radius        =       0.1392352822 bohr
     new conv_thr            =       0.0000000010 Ry

     new unit-cell volume =    155.12053 a.u.^3 (    22.98649 Ang^3 )
     density =      8.06846 g/cm^3

CELL_PARAMETERS (angstrom)
   2.647334852  -0.000000000   0.000000000
  -1.323667426   2.292643496   0.000000000
   0.000000000   0.000000000   3.787278674

ATOMIC_POSITIONS (angstrom)
Fe               0.0000000000        0.0000006899        0.0000000000
Fe               0.0000000000        1.5284324974        1.8936393372


     Message from routine punch:
     Nothing written, as per user request (disk_io='none')
     NEW-OLD atomic charge density approx. for the potential
     New effective cutoffs (rho, wfc):  358.83   34.58

     Check: negative core charge=   -0.000002
     Generating pointlists ...
     new r_m :   0.3718 (alat units)  1.8970 (a.u.) for type    1

     total cpu time spent up to now is       15.5 secs

     Self-consistent Calculation

     iteration #  1     ecut=    30.00 Ry     beta= 0.50
     Davidson diagonalization with overlap
     ethr =  1.00E-06,  avg # of iterations =  8.0

     total cpu time spent up to now is       15.7 secs

     total energy              =    -111.53882304 Ry
     estimated scf accuracy    <       0.00189386 Ry

     total magnetization       =     4.53 Bohr mag/cell
     absolute magnetization    =     4.91 Bohr mag/cell

     iteration #  2     ecut=    30.00 Ry     beta= 0.50
     Davidson diagonalization with overlap
     ethr =  1.18E-05,  avg # of iterations =  1.5

     total cpu time spent up to now is       15.8 secs

     total energy              =    -111.53918919 Ry
     estimated scf accuracy    <       0.00057173 Ry

     total magnetization       =     4.46 Bohr mag/cell
     absolute magnetization    =     4.83 Bohr mag/cell

     iteration #  3     ecut=    30.00 Ry     beta= 0.50
     Davidson diagonalization with overlap
     ethr =  3.57E-06,  avg # of iterations =  2.0

     total cpu time spent up to now is       15.9 secs

     total energy              =    -111.53910141 Ry
     estimated scf accuracy    <       0.00361885 Ry

     total magnetization       =     4.41 Bohr mag/cell
     absolute magnetization    =     4.77 Bohr mag/cell

     iteration #  4     ecut=    30.00 Ry     beta= 0.50
     Davidson diagonalization with overlap
     ethr =  3.57E-06,  avg # of iterations =  1.3

     total cpu time spent up to now is       16.0 secs

     total energy              =    -111.53956755 Ry
     estimated scf accuracy    <       0.00057008 Ry

     total magnetization       =     4.39 Bohr mag/cell
     absolute magnetization    =     4.76 Bohr mag/cell

     iteration #  5     ecut=    30.00 Ry     beta= 0.50
     Davidson diagonalization with overlap
     ethr =  3.56E-06,  avg # of iterations =  1.0

     total cpu time spent up to now is       16.2 secs

     total energy              =    -111.53821449 Ry
     estimated scf accuracy    <       0.00046933 Ry

     total magnetization       =     4.28 Bohr mag/cell
     absolute magnetization    =     4.65 Bohr mag/cell

     iteration #  6     ecut=    30.00 Ry     beta= 0.50
     Davidson diagonalization with overlap
     ethr =  2.93E-06,  avg # of iterations =  1.8

     total cpu time spent up to now is       16.3 secs

     total energy              =    -111.53272127 Ry
     estimated scf accuracy    <       0.00037655 Ry

     total magnetization       =     4.50 Bohr mag/cell
     absolute magnetization    =     4.87 Bohr mag/cell

     iteration #  7     ecut=    30.00 Ry     beta= 0.50
     Davidson diagonalization with overlap
     ethr =  2.35E-06,  avg # of iterations =  3.7

     total cpu time spent up to now is       16.4 secs

     total energy              =    -111.52024243 Ry
     estimated scf accuracy    <       0.00641489 Ry

     total magnetization       =     3.39 Bohr mag/cell
     absolute magnetization    =     3.80 Bohr mag/cell

     iteration #  8     ecut=    30.00 Ry     beta= 0.50
     Davidson diagonalization with overlap
     ethr =  2.35E-06,  avg # of iterations =  4.2

     total cpu time spent up to now is       16.5 secs

     total energy              =    -111.49595565 Ry
     estimated scf accuracy    <       0.00157618 Ry

     total magnetization       =     4.55 Bohr mag/cell
     absolute magnetization    =     4.91 Bohr mag/cell

     iteration #  9     ecut=    30.00 Ry     beta= 0.50
     Davidson diagonalization with overlap
     ethr =  2.35E-06,  avg # of iterations =  4.8

     total cpu time spent up to now is       16.7 secs

     total energy              =    -111.49494174 Ry
     estimated scf accuracy    <       0.04660605 Ry

     total magnetization       =     4.95 Bohr mag/cell
     absolute magnetization    =     5.29 Bohr mag/cell

     iteration # 10     ecut=    30.00 Ry     beta= 0.50
     Davidson diagonalization with overlap
     ethr =  2.35E-06,  avg # of iterations =  2.2

     total cpu time spent up to now is       16.9 secs

     total energy              =    -111.51833408 Ry
     estimated scf accuracy    <       0.05433835 Ry

     total magnetization       =     5.20 Bohr mag/cell
     absolute magnetization    =     5.47 Bohr mag/cell

     iteration # 11     ecut=    30.00 Ry     beta= 0.50
     Davidson diagonalization with overlap
     ethr =  2.35E-06,  avg # of iterations =  4.2

     total cpu time spent up to now is       17.1 secs

     total energy              =    -111.53100445 Ry
     estimated scf accuracy    <       0.01298543 Ry

     total magnetization       =     4.46 Bohr mag/cell
     absolute magnetization    =     4.88 Bohr mag/cell

     iteration # 12     ecut=    30.00 Ry     beta= 0.50
     Davidson diagonalization with overlap
     ethr =  2.35E-06,  avg # of iterations =  1.0

     total cpu time spent up to now is       17.2 secs

     total energy              =    -111.53714713 Ry
     estimated scf accuracy    <       0.01356294 Ry

     total magnetization       =     4.46 Bohr mag/cell
     absolute magnetization    =     4.88 Bohr mag/cell

     iteration # 13     ecut=    30.00 Ry     beta= 0.50
     Davidson diagonalization with overlap
     ethr =  2.35E-06,  avg # of iterations =  2.7

     total cpu time spent up to now is       17.3 secs

     total energy              =    -111.53827040 Ry
     estimated scf accuracy    <       0.00255316 Ry

     total magnetization       =     4.53 Bohr mag/cell
     absolute magnetization    =     4.90 Bohr mag/cell

     iteration # 14     ecut=    30.00 Ry     beta= 0.50
     Davidson diagonalization with overlap
     ethr =  2.35E-06,  avg # of iterations =  1.3

     total cpu time spent up to now is       17.4 secs

     total energy              =    -111.53860534 Ry
     estimated scf accuracy    <       0.00123545 Ry

     total magnetization       =     4.55 Bohr mag/cell
     absolute magnetization    =     4.91 Bohr mag/cell

     iteration # 15     ecut=    30.00 Ry     beta= 0.50
     Davidson diagonalization with overlap
     ethr =  2.35E-06,  avg # of iterations =  1.3

     total cpu time spent up to now is       17.6 secs

     total energy              =    -111.53888192 Ry
     estimated scf accuracy    <       0.00069702 Ry

     total magnetization       =     4.55 Bohr mag/cell
     absolute magnetization    =     4.90 Bohr mag/cell

     iteration # 16     ecut=    30.00 Ry     beta= 0.50
     Davidson diagonalization with overlap
     ethr =  2.35E-06,  avg # of iterations =  1.3

     total cpu time spent up to now is       17.7 secs

     total energy              =    -111.53911842 Ry
     estimated scf accuracy    <       0.00038850 Ry

     total magnetization       =     4.53 Bohr mag/cell
     absolute magnetization    =     4.87 Bohr mag/cell

     iteration # 17     ecut=    30.00 Ry     beta= 0.50
     Davidson diagonalization with overlap
     ethr =  2.35E-06,  avg # of iterations =  2.0

     total cpu time spent up to now is       17.8 secs

     total energy              =    -111.53927122 Ry
     estimated scf accuracy    <       0.00029105 Ry

     total magnetization       =     4.43 Bohr mag/cell
     absolute magnetization    =     4.78 Bohr mag/cell

     iteration # 18     ecut=    30.00 Ry     beta= 0.50
     Davidson diagonalization with overlap
     ethr =  1.82E-06,  avg # of iterations =  1.0

     total cpu time spent up to now is       17.9 secs

     total energy              =    -111.53935605 Ry
     estimated scf accuracy    <       0.00028397 Ry

     total magnetization       =     4.44 Bohr mag/cell
     absolute magnetization    =     4.78 Bohr mag/cell

     iteration # 19     ecut=    30.00 Ry     beta= 0.50
     Davidson diagonalization with overlap
     ethr =  1.77E-06,  avg # of iterations =  2.2

     total cpu time spent up to now is       18.0 secs

     total energy              =    -111.54055285 Ry
     estimated scf accuracy    <       0.00093452 Ry

     total magnetization       =     4.15 Bohr mag/cell
     absolute magnetization    =     4.52 Bohr mag/cell

     iteration # 20     ecut=    30.00 Ry     beta= 0.50
     Davidson diagonalization with overlap
     ethr =  1.77E-06,  avg # of iterations =  1.5

     total cpu time spent up to now is       18.1 secs

     total energy              =    -111.54141694 Ry
     estimated scf accuracy    <       0.00169557 Ry

     total magnetization       =     3.99 Bohr mag/cell
     absolute magnetization    =     4.36 Bohr mag/cell

     iteration # 21     ecut=    30.00 Ry     beta= 0.50
     Davidson diagonalization with overlap
     ethr =  1.77E-06,  avg # of iterations =  1.8

     total cpu time spent up to now is       18.3 secs

     total energy              =    -111.54216129 Ry
     estimated scf accuracy    <       0.00274871 Ry

     total magnetization       =     3.81 Bohr mag/cell
     absolute magnetization    =     4.20 Bohr mag/cell

     iteration # 22     ecut=    30.00 Ry     beta= 0.50
     Davidson diagonalization with overlap
     ethr =  1.77E-06,  avg # of iterations =  1.3

     total cpu time spent up to now is       18.4 secs

     total energy              =    -111.54331669 Ry
     estimated scf accuracy    <       0.00333060 Ry

     total magnetization       =     3.72 Bohr mag/cell
     absolute magnetization    =     4.11 Bohr mag/cell

     iteration # 23     ecut=    30.00 Ry     beta= 0.50
     Davidson diagonalization with overlap
     ethr =  1.77E-06,  avg # of iterations =  2.2

     total cpu time spent up to now is       18.5 secs

     total energy              =    -111.54433259 Ry
     estimated scf accuracy    <       0.00431964 Ry

     total magnetization       =     3.55 Bohr mag/cell
     absolute magnetization    =     3.95 Bohr mag/cell

     iteration # 24     ecut=    30.00 Ry     beta= 0.50
     Davidson diagonalization with overlap
     ethr =  1.77E-06,  avg # of iterations =  1.2

     total cpu time spent up to now is       18.6 secs

     total energy              =    -111.52639864 Ry
     estimated scf accuracy    <       0.00466469 Ry

     total magnetization       =     3.48 Bohr mag/cell
     absolute magnetization    =     3.87 Bohr mag/cell

     iteration # 25     ecut=    30.00 Ry     beta= 0.50
     Davidson diagonalization with overlap
     ethr =  1.77E-06,  avg # of iterations =  4.2

     total cpu time spent up to now is       18.7 secs

     total energy              =    -111.53798387 Ry
     estimated scf accuracy    <       0.00052184 Ry

     total magnetization       =     4.54 Bohr mag/cell
     absolute magnetization    =     4.89 Bohr mag/cell

     iteration # 26     ecut=    30.00 Ry     beta= 0.50
     Davidson diagonalization with overlap
     ethr =  1.77E-06,  avg # of iterations =  1.8

     total cpu time spent up to now is       18.9 secs

     total energy              =    -111.53341165 Ry
     estimated scf accuracy    <       0.00143301 Ry

     total magnetization       =     4.55 Bohr mag/cell
     absolute magnetization    =     4.91 Bohr mag/cell

     iteration # 27     ecut=    30.00 Ry     beta= 0.50
     Davidson diagonalization with overlap
     ethr =  1.77E-06,  avg # of iterations =  2.8

     total cpu time spent up to now is       19.0 secs

     total energy              =    -111.53212375 Ry
     estimated scf accuracy    <       0.00919160 Ry

     total magnetization       =     4.48 Bohr mag/cell
     absolute magnetization    =     4.88 Bohr mag/cell

     iteration # 28     ecut=    30.00 Ry     beta= 0.50
     Davidson diagonalization with overlap
     ethr =  1.77E-06,  avg # of iterations =  1.3

     total cpu time spent up to now is       19.1 secs

     total energy              =    -111.53381064 Ry
     estimated scf accuracy    <       0.01152857 Ry

     total magnetization       =     4.47 Bohr mag/cell
     absolute magnetization    =     4.88 Bohr mag/cell

     iteration # 29     ecut=    30.00 Ry     beta= 0.50
     Davidson diagonalization with overlap
     ethr =  1.77E-06,  avg # of iterations =  1.0

     total cpu time spent up to now is       19.2 secs

     total energy              =    -111.53829501 Ry
     estimated scf accuracy    <       0.00887625 Ry

     total magnetization       =     4.48 Bohr mag/cell
     absolute magnetization    =     4.88 Bohr mag/cell

     iteration # 30     ecut=    30.00 Ry     beta= 0.50
     Davidson diagonalization with overlap
     ethr =  1.77E-06,  avg # of iterations =  3.8

     total cpu time spent up to now is       19.3 secs

     total energy              =    -111.53935858 Ry
     estimated scf accuracy    <       0.00032143 Ry

     total magnetization       =     4.41 Bohr mag/cell
     absolute magnetization    =     4.76 Bohr mag/cell

     iteration # 31     ecut=    30.00 Ry     beta= 0.50
     Davidson diagonalization with overlap
     ethr =  1.77E-06,  avg # of iterations =  1.0

     total cpu time spent up to now is       19.5 secs

     total energy              =    -111.53913477 Ry
     estimated scf accuracy    <       0.00033422 Ry

     total magnetization       =     4.41 Bohr mag/cell
     absolute magnetization    =     4.76 Bohr mag/cell

     iteration # 32     ecut=    30.00 Ry     beta= 0.50
     Davidson diagonalization with overlap
     ethr =  1.77E-06,  avg # of iterations =  1.0

     total cpu time spent up to now is       19.6 secs

     total energy              =    -111.53871663 Ry
     estimated scf accuracy    <       0.00032179 Ry

     total magnetization       =     4.47 Bohr mag/cell
     absolute magnetization    =     4.82 Bohr mag/cell

     iteration # 33     ecut=    30.00 Ry     beta= 0.50
     Davidson diagonalization with overlap
     ethr =  1.77E-06,  avg # of iterations =  1.3

     total cpu time spent up to now is       19.7 secs

     total energy              =    -111.53836865 Ry
     estimated scf accuracy    <       0.00050240 Ry

     total magnetization       =     4.54 Bohr mag/cell
     absolute magnetization    =     4.88 Bohr mag/cell

     iteration # 34     ecut=    30.00 Ry     beta= 0.50
     Davidson diagonalization with overlap
     ethr =  1.77E-06,  avg # of iterations =  2.7

     total cpu time spent up to now is       19.8 secs

     total energy              =    -111.54028883 Ry
     estimated scf accuracy    <       0.00111400 Ry

     total magnetization       =     4.11 Bohr mag/cell
     absolute magnetization    =     4.47 Bohr mag/cell

     iteration # 35     ecut=    30.00 Ry     beta= 0.50
     Davidson diagonalization with overlap
     ethr =  1.77E-06,  avg # of iterations =  1.0

     total cpu time spent up to now is       19.9 secs

     total energy              =    -111.54039629 Ry
     estimated scf accuracy    <       0.00113684 Ry

     total magnetization       =     4.11 Bohr mag/cell
     absolute magnetization    =     4.47 Bohr mag/cell

     iteration # 36     ecut=    30.00 Ry     beta= 0.50
     Davidson diagonalization with overlap
     ethr =  1.77E-06,  avg # of iterations =  1.0

     total cpu time spent up to now is       20.0 secs

     total energy              =    -111.54032392 Ry
     estimated scf accuracy    <       0.00126813 Ry

     total magnetization       =     4.08 Bohr mag/cell
     absolute magnetization    =     4.45 Bohr mag/cell

     iteration # 37     ecut=    30.00 Ry     beta= 0.50
     Davidson diagonalization with overlap
     ethr =  1.77E-06,  avg # of iterations =  1.0

     total cpu time spent up to now is       20.2 secs

     total energy              =    -111.54107091 Ry
     estimated scf accuracy    <       0.00119370 Ry

     total magnetization       =     4.10 Bohr mag/cell
     absolute magnetization    =     4.46 Bohr mag/cell

     iteration # 38     ecut=    30.00 Ry     beta= 0.50
     Davidson diagonalization with overlap
     ethr =  1.77E-06,  avg # of iterations =  2.2

     total cpu time spent up to now is       20.3 secs

     total energy              =    -111.54318181 Ry
     estimated scf accuracy    <       0.00315200 Ry

     total magnetization       =     3.77 Bohr mag/cell
     absolute magnetization    =     4.16 Bohr mag/cell

     iteration # 39     ecut=    30.00 Ry     beta= 0.50
     Davidson diagonalization with overlap
     ethr =  1.77E-06,  avg # of iterations =  2.2

     total cpu time spent up to now is       20.4 secs

     total energy              =    -111.52488009 Ry
     estimated scf accuracy    <       0.00474699 Ry

     total magnetization       =     3.54 Bohr mag/cell
     absolute magnetization    =     3.94 Bohr mag/cell

     iteration # 40     ecut=    30.00 Ry     beta= 0.50
     Davidson diagonalization with overlap
     ethr =  1.77E-06,  avg # of iterations =  4.2

     total cpu time spent up to now is       20.5 secs

     total energy              =    -111.53159646 Ry
     estimated scf accuracy    <       0.00114147 Ry

     total magnetization       =     4.55 Bohr mag/cell
     absolute magnetization    =     4.91 Bohr mag/cell

     iteration # 41     ecut=    30.00 Ry     beta= 0.50
     Davidson diagonalization with overlap
     ethr =  1.77E-06,  avg # of iterations =  3.7

     total cpu time spent up to now is       20.7 secs

     total energy              =    -111.53626358 Ry
     estimated scf accuracy    <       0.01195541 Ry

     total magnetization       =     4.47 Bohr mag/cell
     absolute magnetization    =     4.88 Bohr mag/cell

     iteration # 42     ecut=    30.00 Ry     beta= 0.50
     Davidson diagonalization with overlap
     ethr =  1.77E-06,  avg # of iterations =  2.7

     total cpu time spent up to now is       20.8 secs

     total energy              =    -111.53672745 Ry
     estimated scf accuracy    <       0.00464726 Ry

     total magnetization       =     4.51 Bohr mag/cell
     absolute magnetization    =     4.89 Bohr mag/cell

     iteration # 43     ecut=    30.00 Ry     beta= 0.50
     Davidson diagonalization with overlap
     ethr =  1.77E-06,  avg # of iterations =  1.0

     total cpu time spent up to now is       20.9 secs

     total energy              =    -111.53842983 Ry
     estimated scf accuracy    <       0.00409412 Ry

     total magnetization       =     4.52 Bohr mag/cell
     absolute magnetization    =     4.89 Bohr mag/cell

     iteration # 44     ecut=    30.00 Ry     beta= 0.50
     Davidson diagonalization with overlap
     ethr =  1.77E-06,  avg # of iterations =  2.5

     total cpu time spent up to now is       21.0 secs

     total energy              =    -111.53812097 Ry
     estimated scf accuracy    <       0.00097149 Ry

     total magnetization       =     4.55 Bohr mag/cell
     absolute magnetization    =     4.91 Bohr mag/cell

     iteration # 45     ecut=    30.00 Ry     beta= 0.50
     Davidson diagonalization with overlap
     ethr =  1.77E-06,  avg # of iterations =  1.0

     total cpu time spent up to now is       21.1 secs

     total energy              =    -111.53850118 Ry
     estimated scf accuracy    <       0.00156295 Ry

     total magnetization       =     4.55 Bohr mag/cell
     absolute magnetization    =     4.91 Bohr mag/cell

     iteration # 46     ecut=    30.00 Ry     beta= 0.50
     Davidson diagonalization with overlap
     ethr =  1.77E-06,  avg # of iterations =  1.0

     total cpu time spent up to now is       21.3 secs

     total energy              =    -111.53883679 Ry
     estimated scf accuracy    <       0.00095382 Ry

     total magnetization       =     4.55 Bohr mag/cell
     absolute magnetization    =     4.91 Bohr mag/cell

     iteration # 47     ecut=    30.00 Ry     beta= 0.50
     Davidson diagonalization with overlap
     ethr =  1.77E-06,  avg # of iterations =  1.3

     total cpu time spent up to now is       21.4 secs

     total energy              =    -111.53829330 Ry
     estimated scf accuracy    <       0.00051576 Ry

     total magnetization       =     4.53 Bohr mag/cell
     absolute magnetization    =     4.88 Bohr mag/cell

     iteration # 48     ecut=    30.00 Ry     beta= 0.50
     Davidson diagonalization with overlap
     ethr =  1.77E-06,  avg # of iterations =  2.8

     total cpu time spent up to now is       21.5 secs

     total energy              =    -111.54021116 Ry
[...]
     Davidson diagonalization with overlap
     ethr =  1.77E-06,  avg # of iterations =  2.8

     total cpu time spent up to now is       23.0 secs

     total energy              =    -111.51713590 Ry
     estimated scf accuracy    <       0.01859425 Ry

     total magnetization       =     4.45 Bohr mag/cell
     absolute magnetization    =     4.88 Bohr mag/cell

     iteration # 61     ecut=    30.00 Ry     beta= 0.50
     Davidson diagonalization with overlap
     ethr =  1.77E-06,  avg # of iterations =  2.8

     total cpu time spent up to now is       23.1 secs

     total energy              =    -111.52908614 Ry
     estimated scf accuracy    <       0.03121094 Ry

     total magnetization       =     4.53 Bohr mag/cell
     absolute magnetization    =     4.97 Bohr mag/cell

     iteration # 62     ecut=    30.00 Ry     beta= 0.50
     Davidson diagonalization with overlap
     ethr =  1.77E-06,  avg # of iterations =  2.7

     total cpu time spent up to now is       23.2 secs

     total energy              =    -111.53759844 Ry
     estimated scf accuracy    <       0.01461292 Ry

     total magnetization       =     4.46 Bohr mag/cell
     absolute magnetization    =     4.88 Bohr mag/cell

     iteration # 63     ecut=    30.00 Ry     beta= 0.50
     Davidson diagonalization with overlap
     ethr =  1.77E-06,  avg # of iterations =  3.8

     total cpu time spent up to now is       23.4 secs

     total energy              =    -111.53874830 Ry
     estimated scf accuracy    <       0.00152132 Ry

     total magnetization       =     4.55 Bohr mag/cell
     absolute magnetization    =     4.91 Bohr mag/cell

     iteration # 64     ecut=    30.00 Ry     beta= 0.50
     Davidson diagonalization with overlap
     ethr =  1.77E-06,  avg # of iterations =  1.5

     total cpu time spent up to now is       23.5 secs

     total energy              =    -111.53856690 Ry
     estimated scf accuracy    <       0.00062016 Ry

     total magnetization       =     4.54 Bohr mag/cell
     absolute magnetization    =     4.89 Bohr mag/cell

     iteration # 65     ecut=    30.00 Ry     beta= 0.50
     Davidson diagonalization with overlap
     ethr =  1.77E-06,  avg # of iterations =  2.8

     total cpu time spent up to now is       23.6 secs

     total energy              =    -111.53998291 Ry
     estimated scf accuracy    <       0.00067393 Ry

     total magnetization       =     4.22 Bohr mag/cell
     absolute magnetization    =     4.58 Bohr mag/cell

     iteration # 66     ecut=    30.00 Ry     beta= 0.50
     Davidson diagonalization with overlap
     ethr =  1.77E-06,  avg # of iterations =  1.0

     total cpu time spent up to now is       23.7 secs

     total energy              =    -111.54027428 Ry
     estimated scf accuracy    <       0.00085814 Ry

     total magnetization       =     4.19 Bohr mag/cell
     absolute magnetization    =     4.55 Bohr mag/cell

     iteration # 67     ecut=    30.00 Ry     beta= 0.50
     Davidson diagonalization with overlap
     ethr =  1.77E-06,  avg # of iterations =  1.0

     total cpu time spent up to now is       23.8 secs

     total energy              =    -111.54040134 Ry
     estimated scf accuracy    <       0.00128913 Ry

     total magnetization       =     4.09 Bohr mag/cell
     absolute magnetization    =     4.45 Bohr mag/cell

     iteration # 68     ecut=    30.00 Ry     beta= 0.50
     Davidson diagonalization with overlap
     ethr =  1.77E-06,  avg # of iterations =  1.0

     total cpu time spent up to now is       24.0 secs

     total energy              =    -111.54037203 Ry
     estimated scf accuracy    <       0.00134472 Ry

     total magnetization       =     4.08 Bohr mag/cell
     absolute magnetization    =     4.44 Bohr mag/cell

     iteration # 69     ecut=    30.00 Ry     beta= 0.50
     Davidson diagonalization with overlap
     ethr =  1.77E-06,  avg # of iterations =  1.0

     total cpu time spent up to now is       24.1 secs

     total energy              =    -111.54040222 Ry
     estimated scf accuracy    <       0.00131062 Ry

     total magnetization       =     4.08 Bohr mag/cell
     absolute magnetization    =     4.45 Bohr mag/cell

     iteration # 70     ecut=    30.00 Ry     beta= 0.50
     Davidson diagonalization with overlap
     ethr =  1.77E-06,  avg # of iterations =  1.0

     total cpu time spent up to now is       24.2 secs

     total energy              =    -111.54041174 Ry
     estimated scf accuracy    <       0.00134999 Ry

     total magnetization       =     4.08 Bohr mag/cell
     absolute magnetization    =     4.44 Bohr mag/cell

     iteration # 71     ecut=    30.00 Ry     beta= 0.50
     Davidson diagonalization with overlap
     ethr =  1.77E-06,  avg # of iterations =  1.0

     total cpu time spent up to now is       24.3 secs

     total energy              =    -111.54112246 Ry
     estimated scf accuracy    <       0.00135562 Ry

     total magnetization       =     4.07 Bohr mag/cell
     absolute magnetization    =     4.44 Bohr mag/cell

     iteration # 72     ecut=    30.00 Ry     beta= 0.50
     Davidson diagonalization with overlap
     ethr =  1.77E-06,  avg # of iterations =  1.8

     total cpu time spent up to now is       24.4 secs

     total energy              =    -111.52345112 Ry
     estimated scf accuracy    <       0.00292269 Ry

     total magnetization       =     3.81 Bohr mag/cell
     absolute magnetization    =     4.20 Bohr mag/cell

     iteration # 73     ecut=    30.00 Ry     beta= 0.50
     Davidson diagonalization with overlap
     ethr =  1.77E-06,  avg # of iterations =  4.0

     total cpu time spent up to now is       24.6 secs

     total energy              =    -111.52151946 Ry
     estimated scf accuracy    <       0.00401004 Ry

     total magnetization       =     4.52 Bohr mag/cell
     absolute magnetization    =     4.89 Bohr mag/cell

     iteration # 74     ecut=    30.00 Ry     beta= 0.50
     Davidson diagonalization with overlap
     ethr =  1.77E-06,  avg # of iterations =  5.2

     total cpu time spent up to now is       24.7 secs

     total energy              =    -111.54872574 Ry
     estimated scf accuracy    <       0.00838278 Ry

     total magnetization       =     3.18 Bohr mag/cell
     absolute magnetization    =     3.56 Bohr mag/cell

     iteration # 75     ecut=    30.00 Ry     beta= 0.50
     Davidson diagonalization with overlap
     ethr =  1.77E-06,  avg # of iterations =  1.5

     total cpu time spent up to now is       24.8 secs

     total energy              =    -111.54859401 Ry
     estimated scf accuracy    <       0.00869078 Ry

     total magnetization       =     3.13 Bohr mag/cell
     absolute magnetization    =     3.51 Bohr mag/cell

     iteration # 76     ecut=    30.00 Ry     beta= 0.50
     Davidson diagonalization with overlap
     ethr =  1.77E-06,  avg # of iterations =  1.0

     total cpu time spent up to now is       24.9 secs

     total energy              =    -111.54239509 Ry
     estimated scf accuracy    <       0.00825014 Ry

     total magnetization       =     3.15 Bohr mag/cell
     absolute magnetization    =     3.53 Bohr mag/cell

     iteration # 77     ecut=    30.00 Ry     beta= 0.50
     Davidson diagonalization with overlap
     ethr =  1.77E-06,  avg # of iterations =  3.2

     total cpu time spent up to now is       25.1 secs

     total energy              =    -111.52911450 Ry
     estimated scf accuracy    <       0.00489499 Ry

     total magnetization       =     3.50 Bohr mag/cell
     absolute magnetization    =     3.89 Bohr mag/cell

     iteration # 78     ecut=    30.00 Ry     beta= 0.50
     Davidson diagonalization with overlap
     ethr =  1.77E-06,  avg # of iterations =  4.2

     total cpu time spent up to now is       25.2 secs

     total energy              =    -111.53918457 Ry
     estimated scf accuracy    <       0.00046860 Ry

     total magnetization       =     4.50 Bohr mag/cell
     absolute magnetization    =     4.85 Bohr mag/cell

     iteration # 79     ecut=    30.00 Ry     beta= 0.50
     Davidson diagonalization with overlap
     ethr =  1.77E-06,  avg # of iterations =  1.8

     total cpu time spent up to now is       25.3 secs

     total energy              =    -111.53344956 Ry
     estimated scf accuracy    <       0.00059135 Ry

     total magnetization       =     4.34 Bohr mag/cell
     absolute magnetization    =     4.70 Bohr mag/cell

     iteration # 80     ecut=    30.00 Ry     beta= 0.50
     Davidson diagonalization with overlap
     ethr =  1.77E-06,  avg # of iterations =  3.5

     total cpu time spent up to now is       25.4 secs

     total energy              =    -111.50537155 Ry
     estimated scf accuracy    <       0.00453796 Ry

     total magnetization       =     4.51 Bohr mag/cell
     absolute magnetization    =     4.89 Bohr mag/cell

     iteration # 81     ecut=    30.00 Ry     beta= 0.50
     Davidson diagonalization with overlap
     ethr =  1.77E-06,  avg # of iterations =  5.2

     total cpu time spent up to now is       25.6 secs

     total energy              =    -111.54950614 Ry
     estimated scf accuracy    <       0.01127140 Ry

     total magnetization       =     2.98 Bohr mag/cell
     absolute magnetization    =     3.34 Bohr mag/cell

     iteration # 82     ecut=    30.00 Ry     beta= 0.50
     Davidson diagonalization with overlap
     ethr =  1.77E-06,  avg # of iterations =  1.0

     total cpu time spent up to now is       25.7 secs

     total energy              =    -111.54953808 Ry
     estimated scf accuracy    <       0.01099261 Ry

     total magnetization       =     3.00 Bohr mag/cell
     absolute magnetization    =     3.36 Bohr mag/cell

     iteration # 83     ecut=    30.00 Ry     beta= 0.50
     Davidson diagonalization with overlap
     ethr =  1.77E-06,  avg # of iterations =  1.0

     total cpu time spent up to now is       25.8 secs

     total energy              =    -111.54795588 Ry
     estimated scf accuracy    <       0.01076506 Ry

     total magnetization       =     3.02 Bohr mag/cell
     absolute magnetization    =     3.38 Bohr mag/cell

     iteration # 84     ecut=    30.00 Ry     beta= 0.50
     Davidson diagonalization with overlap
     ethr =  1.77E-06,  avg # of iterations =  2.7

     total cpu time spent up to now is       25.9 secs

     total energy              =    -111.54876595 Ry
     estimated scf accuracy    <       0.00871577 Ry

     total magnetization       =     3.16 Bohr mag/cell
     absolute magnetization    =     3.54 Bohr mag/cell

     iteration # 85     ecut=    30.00 Ry     beta= 0.50
     Davidson diagonalization with overlap
     ethr =  1.77E-06,  avg # of iterations =  2.7

     total cpu time spent up to now is       26.1 secs

     total energy              =    -111.54851305 Ry
     estimated scf accuracy    <       0.01124244 Ry

     total magnetization       =     2.98 Bohr mag/cell
     absolute magnetization    =     3.34 Bohr mag/cell

     iteration # 86     ecut=    30.00 Ry     beta= 0.50
     Davidson diagonalization with overlap
     ethr =  1.77E-06,  avg # of iterations =  2.3

     total cpu time spent up to now is       26.2 secs

     total energy              =    -111.53660660 Ry
     estimated scf accuracy    <       0.00962368 Ry

     total magnetization       =     3.12 Bohr mag/cell
     absolute magnetization    =     3.49 Bohr mag/cell

     iteration # 87     ecut=    30.00 Ry     beta= 0.50
     Davidson diagonalization with overlap
     ethr =  1.77E-06,  avg # of iterations =  4.2

     total cpu time spent up to now is       26.3 secs

     total energy              =    -111.53979302 Ry
     estimated scf accuracy    <       0.00344162 Ry

     total magnetization       =     3.81 Bohr mag/cell
     absolute magnetization    =     4.20 Bohr mag/cell

     iteration # 88     ecut=    30.00 Ry     beta= 0.50
     Davidson diagonalization with overlap
     ethr =  1.77E-06,  avg # of iterations =  1.8

     total cpu time spent up to now is       26.4 secs

     total energy              =    -111.53549350 Ry
     estimated scf accuracy    <       0.00177272 Ry

     total magnetization       =     4.06 Bohr mag/cell
     absolute magnetization    =     4.43 Bohr mag/cell

     iteration # 89     ecut=    30.00 Ry     beta= 0.50
     Davidson diagonalization with overlap
     ethr =  1.77E-06,  avg # of iterations =  2.8

     total cpu time spent up to now is       26.6 secs

     total energy              =    -111.53563051 Ry
     estimated scf accuracy    <       0.00086944 Ry

     total magnetization       =     4.54 Bohr mag/cell
     absolute magnetization    =     4.89 Bohr mag/cell

     iteration # 90     ecut=    30.00 Ry     beta= 0.50
     Davidson diagonalization with overlap
     ethr =  1.77E-06,  avg # of iterations =  2.7

     total cpu time spent up to now is       26.7 secs

     total energy              =    -111.53085169 Ry
     estimated scf accuracy    <       0.00587797 Ry

     total magnetization       =     4.51 Bohr mag/cell
     absolute magnetization    =     4.89 Bohr mag/cell

     iteration # 91     ecut=    30.00 Ry     beta= 0.50
     Davidson diagonalization with overlap
     ethr =  1.77E-06,  avg # of iterations =  3.0

     total cpu time spent up to now is       26.8 secs

     total energy              =    -111.53748845 Ry
     estimated scf accuracy    <       0.01465453 Ry

     total magnetization       =     4.46 Bohr mag/cell
     absolute magnetization    =     4.88 Bohr mag/cell

     iteration # 92     ecut=    30.00 Ry     beta= 0.50
     Davidson diagonalization with overlap
     ethr =  1.77E-06,  avg # of iterations =  4.2

     total cpu time spent up to now is       26.9 secs

     total energy              =    -111.53984111 Ry
     estimated scf accuracy    <       0.00071532 Ry

     total magnetization       =     4.30 Bohr mag/cell
     absolute magnetization    =     4.66 Bohr mag/cell

     iteration # 93     ecut=    30.00 Ry     beta= 0.50
     Davidson diagonalization with overlap
     ethr =  1.77E-06,  avg # of iterations =  1.0

     total cpu time spent up to now is       27.1 secs

     total energy              =    -111.54008100 Ry
     estimated scf accuracy    <       0.00087049 Ry

     total magnetization       =     4.22 Bohr mag/cell
     absolute magnetization    =     4.58 Bohr mag/cell

     iteration # 94     ecut=    30.00 Ry     beta= 0.50
     Davidson diagonalization with overlap
     ethr =  1.77E-06,  avg # of iterations =  1.3

     total cpu time spent up to now is       27.2 secs

     total energy              =    -111.53698627 Ry
     estimated scf accuracy    <       0.00113606 Ry

     total magnetization       =     4.15 Bohr mag/cell
     absolute magnetization    =     4.52 Bohr mag/cell

     iteration # 95     ecut=    30.00 Ry     beta= 0.50
     Davidson diagonalization with overlap
     ethr =  1.77E-06,  avg # of iterations =  2.5

     total cpu time spent up to now is       27.3 secs

     total energy              =    -111.53877000 Ry
     estimated scf accuracy    <       0.00048530 Ry

     total magnetization       =     4.52 Bohr mag/cell
     absolute magnetization    =     4.87 Bohr mag/cell

     iteration # 96     ecut=    30.00 Ry     beta= 0.50
     Davidson diagonalization with overlap
     ethr =  1.77E-06,  avg # of iterations =  1.0

     total cpu time spent up to now is       27.4 secs

     total energy              =    -111.53900375 Ry
     estimated scf accuracy    <       0.00052095 Ry

     total magnetization       =     4.54 Bohr mag/cell
     absolute magnetization    =     4.88 Bohr mag/cell

     iteration # 97     ecut=    30.00 Ry     beta= 0.50
     Davidson diagonalization with overlap
     ethr =  1.77E-06,  avg # of iterations =  2.2

     total cpu time spent up to now is       27.5 secs

     total energy              =    -111.53966474 Ry
     estimated scf accuracy    <       0.00038275 Ry

     total magnetization       =     4.36 Bohr mag/cell
     absolute magnetization    =     4.71 Bohr mag/cell

     iteration # 98     ecut=    30.00 Ry     beta= 0.50
     Davidson diagonalization with overlap
     ethr =  1.77E-06,  avg # of iterations =  1.0

     total cpu time spent up to now is       27.7 secs

     total energy              =    -111.53927659 Ry
     estimated scf accuracy    <       0.00056807 Ry

     total magnetization       =     4.28 Bohr mag/cell
     absolute magnetization    =     4.63 Bohr mag/cell

     iteration # 99     ecut=    30.00 Ry     beta= 0.50
     Davidson diagonalization with overlap
     ethr =  1.77E-06,  avg # of iterations =  1.0

     total cpu time spent up to now is       27.8 secs

     total energy              =    -111.53948982 Ry
     estimated scf accuracy    <       0.00034621 Ry

     total magnetization       =     4.39 Bohr mag/cell
     absolute magnetization    =     4.74 Bohr mag/cell

     iteration #100     ecut=    30.00 Ry     beta= 0.50
     Davidson diagonalization with overlap
     ethr =  1.77E-06,  avg # of iterations =  1.0

     total cpu time spent up to now is       27.9 secs

     total energy              =    -111.53973076 Ry
     estimated scf accuracy    <       0.00040326 Ry

     total magnetization       =     4.36 Bohr mag/cell
     absolute magnetization    =     4.71 Bohr mag/cell

     End of self-consistent calculation

     convergence NOT achieved after 100 iterations: stopping
     Message from routine punch:
     Nothing written, as per user request (disk_io='none')

     init_run     :      0.51s CPU      0.52s WALL (       1 calls)
     electrons    :     25.51s CPU     26.40s WALL (       3 calls)
     update_pot   :      0.04s CPU      0.04s WALL (       2 calls)
     forces       :      0.13s CPU      0.14s WALL (       2 calls)
     stress       :      0.58s CPU      0.59s WALL (       2 calls)

     Called by init_run:
     wfcinit      :      0.01s CPU      0.01s WALL (       1 calls)
     potinit      :      0.12s CPU      0.12s WALL (       1 calls)
     hinit0       :      0.34s CPU      0.35s WALL (       1 calls)

     Called by electrons:
     c_bands      :      6.10s CPU      6.52s WALL (     208 calls)
     sum_band     :     10.21s CPU     10.37s WALL (     208 calls)
     v_of_rho     :      3.51s CPU      3.65s WALL (     211 calls)
     newd         :      5.15s CPU      5.25s WALL (     211 calls)
     mix_rho      :      0.37s CPU      0.41s WALL (     208 calls)

     Called by c_bands:
     init_us_2    :      0.18s CPU      0.20s WALL (    2526 calls)
     cegterg      :      5.55s CPU      5.92s WALL (    1248 calls)

     Called by *egterg:
     cdiaghg      :      0.58s CPU      0.62s WALL (    4707 calls)
     h_psi        :      4.30s CPU      4.59s WALL (    4725 calls)
     s_psi        :      0.10s CPU      0.11s WALL (    4725 calls)
     g_psi        :      0.03s CPU      0.03s WALL (    3471 calls)

     Called by h_psi:
     h_psi:calbec :      0.20s CPU      0.21s WALL (    4725 calls)
     vloc_psi     :      3.96s CPU      4.23s WALL (    4725 calls)
     add_vuspsi   :      0.11s CPU      0.12s WALL (    4725 calls)

     General routines
     calbec       :      0.25s CPU      0.27s WALL (    6177 calls)
     fft          :      1.49s CPU      1.56s WALL (    5351 calls)
     ffts         :      0.16s CPU      0.17s WALL (     838 calls)
     fftw         :      3.99s CPU      4.26s WALL (   98790 calls)
     interpolate  :      0.24s CPU      0.25s WALL (     422 calls)

     Parallel routines

     PWSCF        :     26.95s CPU     27.89s WALL


   This run was terminated on:  17:50:49  20Oct2025            

=------------------------------------------------------------------------------=
   JOB DONE.
=------------------------------------------------------------------------------=
