LAMMPS (22 Jul 2025 - Update 1)
Reading data file ...
  orthogonal box = (0 0 0) to (28.571584 28.571584 28.571584)
  1 by 1 by 1 MPI processor grid
  reading atoms ...
  1371 atoms
  read_data CPU = 0.005 seconds
Reading eam/alloy potential file /home/bond/Software/LAMMPS/lammps-22Jul2025/potentials/Al_zhou.eam.alloy with DATE: 2007-10-12
WARNING: No fixes with time integration, atoms won't move
For more information see https://docs.lammps.org/err0028 (../verlet.cpp:60)
Neighbor list info ...
  update: every = 1 steps, delay = 0 steps, check = yes
  max neighbors/atom: 2000, page size: 100000
  master list distance cutoff = 12.1025
  ghost atom cutoff = 12.1025
  binsize = 6.05125, bins = 5 5 5
  1 neighbor lists, perpetual/occasional/extra = 1 0 0
  (1) pair eam/alloy, perpetual
      attributes: half, newton on
      pair build: half/bin/atomonly/newton
      stencil: half/bin/3d
      bin: standard
Setting up Verlet run ...
  Unit style    : metal
  Current step  : 0
  Time step     : 0.001
Per MPI rank memory allocation (min/avg/max) = 4.386 | 4.386 | 4.386 Mbytes
   Step         PotEng           Lx             Ly             Lz           Press           Pxx            Pyy            Pzz      
         0  -4907.3711      28.571584      28.571584      28.571584     -207.52551     -207.52557     -207.52539     -207.52557    
Loop time of 1.594e-06 on 1 procs for 0 steps with 1371 atoms

125.5% CPU use with 1 MPI tasks x no OpenMP threads

MPI task timing breakdown:
Section |  min time  |  avg time  |  max time  |%varavg| %total
---------------------------------------------------------------
Pair    | 0          | 0          | 0          |   0.0 |  0.00
Neigh   | 0          | 0          | 0          |   0.0 |  0.00
Comm    | 0          | 0          | 0          |   0.0 |  0.00
Output  | 0          | 0          | 0          |   0.0 |  0.00
Modify  | 0          | 0          | 0          |   0.0 |  0.00
Other   |            | 1.594e-06  |            |       |100.00

Nlocal:           1371 ave        1371 max        1371 min
Histogram: 1 0 0 0 0 0 0 0 0 0
Nghost:           6433 ave        6433 max        6433 min
Histogram: 1 0 0 0 0 0 0 0 0 0
Neighs:         293180 ave      293180 max      293180 min
Histogram: 1 0 0 0 0 0 0 0 0 0

Total # of neighbors = 293180
Ave neighs/atom = 213.84391
Neighbor list builds = 0
Dangerous builds = 0
Total energy (eV) = -4907.37112890215
Number of atoms = 1371
Lattice constant (Angstoms) = 28.5715843340443
Total wall time: 0:00:00
