
     Program PWSCF v.7.4.1 starts on 20Oct2025 at 17:57:34 

     This program is part of the open-source Quantum ESPRESSO suite
     for quantum simulation of materials; please cite
         "P. Giannozzi et al., J. Phys.:Condens. Matter 21 395502 (2009);
         "P. Giannozzi et al., J. Phys.:Condens. Matter 29 465901 (2017);
         "P. Giannozzi et al., J. Chem. Phys. 152 154105 (2020);
          URL http://www.quantum-espresso.org", 
     in publications or presentations arising from this work. More details at
     http://www.quantum-espresso.org/quote

     Parallel version (MPI), running on     2 processors

     MPI processes distributed on     1 nodes
     325 MiB available memory on the printing compute node when the environment starts

     Waiting for input...
     Reading input from standard input

     Current dimensions of program PWSCF are:
     Max number of different atomic species (ntypx) = 10
     Max number of k-points (npk) =  40000
     Max angular momentum in pseudopotentials (lmaxx) =  4
     file Fe.pbe-nd-rrkjus.UPF: wavefunction(s)  4S renormalized
     Message from routine setup:
     using ibrav=0 with symmetry is DISCOURAGED, use correct ibrav instead

     R & G space division:  proc/nbgrp/npool/nimage =       2
     Subspace diagonalization in iterative solution of the eigenvalue problem:
     a serial algorithm will be used


     Parallelization info
     --------------------
     sticks:   dense  smooth     PW     G-vecs:    dense   smooth      PW
     Min         218      86     45                 2887      739     265
     Max         219      87     46                 2888      742     266
     Sum         437     173     91                 5775     1481     531

     Using Slab Decomposition



     bravais-lattice index     =            0
     lattice parameter (alat)  =       4.4187  a.u.
     unit-cell volume          =      66.4137 (a.u.)^3
     number of atoms/cell      =            1
     number of atomic types    =            1
     number of electrons       =         8.00
     number of Kohn-Sham states=            8
     kinetic-energy cutoff     =      30.0000  Ry
     charge density cutoff     =     300.0000  Ry
     scf convergence threshold =      1.0E-07
     mixing beta               =       0.5000
     number of iterations used =            8  plain     mixing
     energy convergence thresh.=      1.0E-04
     force convergence thresh. =      1.0E-03
     press convergence thresh. =      5.0E-01
     Exchange-correlation=  SLA  PW   PBE  PBE
                           (   1   4   3   4   0   0   0)
     nstep                     =           50


     celldm(1)=   4.418687  celldm(2)=   0.000000  celldm(3)=   0.000000
     celldm(4)=   0.000000  celldm(5)=   0.000000  celldm(6)=   0.000000

     crystal axes: (cart. coord. in units of alat)
               a(1) = (  -0.577350   0.577350   0.577350 )  
               a(2) = (   0.577350  -0.577350   0.577350 )  
               a(3) = (   0.577350   0.577350  -0.577350 )  

     reciprocal axes: (cart. coord. in units 2 pi/alat)
               b(1) = (  0.000000  0.866025  0.866025 )  
               b(2) = (  0.866025  0.000000  0.866025 )  
               b(3) = (  0.866025  0.866025  0.000000 )  


     PseudoPot. # 1 for Fe read from file:
     /home/bond/Software/QE/qe-7.4.1/pseudo/Fe.pbe-nd-rrkjus.UPF
     MD5 check sum: 398036227a04b607635f6f5e8dfd8242
     Pseudo is Ultrasoft + core correction, Zval =  8.0
     Generated by new atomic code, or converted to UPF format
     Using radial grid of  957 points,  6 beta functions with: 
                l(1) =   0
                l(2) =   0
                l(3) =   1
                l(4) =   1
                l(5) =   2
                l(6) =   2
     Q(r) pseudized with 0 coefficients 


     atomic species   valence    mass     pseudopotential
     Fe                8.00    55.84500     Fe( 1.00)

     Starting magnetic structure 
     atomic species   magnetization
     Fe              0.700

     48 Sym. Ops., with inversion, found



   Cartesian axes

     site n.     atom                  positions (alat units)
         1        Fe     tau(   1) = (   0.0000000   0.0000000   0.0000000  )

     number of k points=    47  Methfessel-Paxton smearing, width (Ry)=  0.0200
                       cart. coord. in units 2pi/alat
        k(    1) = (   0.0000000   0.0000000   0.0000000), wk =   0.0010000
        k(    2) = (   0.0866025   0.0866025   0.0000000), wk =   0.0120000
        k(    3) = (   0.1732051   0.1732051   0.0000000), wk =   0.0120000
        k(    4) = (   0.2598076   0.2598076   0.0000000), wk =   0.0120000
        k(    5) = (   0.3464102   0.3464102   0.0000000), wk =   0.0120000
        k(    6) = (  -0.4330127  -0.4330127   0.0000000), wk =   0.0060000
        k(    7) = (   0.1732051   0.0866025   0.0866025), wk =   0.0240000
        k(    8) = (   0.2598076   0.1732051   0.0866025), wk =   0.0480000
        k(    9) = (   0.3464102   0.2598076   0.0866025), wk =   0.0480000
        k(   10) = (   0.4330127   0.3464102   0.0866025), wk =   0.0480000
        k(   11) = (   0.3464102   0.1732051   0.1732051), wk =   0.0240000
        k(   12) = (   0.4330127   0.2598076   0.1732051), wk =   0.0480000
        k(   13) = (   0.5196152   0.3464102   0.1732051), wk =   0.0240000
        k(   14) = (   0.5196152   0.2598076   0.2598076), wk =   0.0240000
        k(   15) = (   0.1732051   0.1732051   0.1732051), wk =   0.0080000
        k(   16) = (   0.2598076   0.2598076   0.1732051), wk =   0.0240000
        k(   17) = (   0.3464102   0.3464102   0.1732051), wk =   0.0240000
        k(   18) = (   0.4330127   0.4330127   0.1732051), wk =   0.0120000
        k(   19) = (   0.0000000   0.0000000   0.1732051), wk =   0.0060000
        k(   20) = (   0.3464102   0.2598076   0.2598076), wk =   0.0240000
        k(   21) = (   0.4330127   0.3464102   0.2598076), wk =   0.0480000
        k(   22) = (   0.0000000  -0.0866025   0.2598076), wk =   0.0240000
        k(   23) = (   0.5196152   0.3464102   0.3464102), wk =   0.0080000
        k(   24) = (   0.0000000  -0.1732051   0.3464102), wk =   0.0240000
        k(   25) = (   0.0866025  -0.0866025   0.3464102), wk =   0.0240000
        k(   26) = (   0.0000000  -0.2598076   0.4330127), wk =   0.0240000
        k(   27) = (   0.0866025  -0.1732051   0.4330127), wk =   0.0480000
        k(   28) = (  -0.8660254  -0.3464102  -0.3464102), wk =   0.0120000
        k(   29) = (  -0.7794229  -0.2598076  -0.3464102), wk =   0.0480000
        k(   30) = (  -0.6928203  -0.1732051  -0.3464102), wk =   0.0240000
        k(   31) = (  -0.6928203  -0.2598076  -0.2598076), wk =   0.0240000
        k(   32) = (   0.3464102   0.3464102   0.3464102), wk =   0.0080000
        k(   33) = (   0.4330127   0.4330127   0.3464102), wk =   0.0120000
        k(   34) = (   0.0000000   0.0000000   0.3464102), wk =   0.0060000
        k(   35) = (   0.0000000  -0.0866025   0.4330127), wk =   0.0240000
        k(   36) = (   0.0000000  -0.1732051   0.5196152), wk =   0.0240000
        k(   37) = (   0.0866025  -0.0866025   0.5196152), wk =   0.0240000
        k(   38) = (  -0.8660254  -0.2598076  -0.2598076), wk =   0.0120000
        k(   39) = (  -0.7794229  -0.1732051  -0.2598076), wk =   0.0480000
        k(   40) = (  -0.6928203  -0.1732051  -0.1732051), wk =   0.0080000
        k(   41) = (   0.0000000   0.0000000   0.5196152), wk =   0.0060000
        k(   42) = (   0.0000000  -0.0866025   0.6062178), wk =   0.0240000
        k(   43) = (  -0.8660254  -0.1732051  -0.1732051), wk =   0.0120000
        k(   44) = (  -0.7794229  -0.0866025  -0.1732051), wk =   0.0240000
        k(   45) = (   0.0000000   0.0000000   0.6928203), wk =   0.0060000
        k(   46) = (  -0.8660254  -0.0866025  -0.0866025), wk =   0.0120000
        k(   47) = (  -0.8660254  -0.8660254  -0.8660254), wk =   0.0010000

     Dense  grid:     5775 G-vectors     FFT dimensions: (  25,  25,  25)

     Smooth grid:     1481 G-vectors     FFT dimensions: (  15,  15,  15)

     Estimated max dynamical RAM per process >      15.73 MB

     Estimated total dynamical RAM >      31.46 MB

     Check: negative core charge=   -0.000001
     Generating pointlists ...
     new r_m :   0.4125 (alat units)  1.8227 (a.u.) for type    1

     Initial potential from superposition of free atoms

     starting charge       7.9994, renormalised to       8.0000
     Starting wfcs are    6 randomized atomic wfcs +    2 random wfcs

     total cpu time spent up to now is        0.5 secs

     Self-consistent Calculation

     iteration #  1     ecut=    30.00 Ry     beta= 0.50
     Davidson diagonalization with overlap
     ethr =  1.00E-02,  avg # of iterations =  4.4

     total cpu time spent up to now is        0.7 secs

     total energy              =     -55.66738364 Ry
     estimated scf accuracy    <       0.30097455 Ry

     total magnetization       =     2.85 Bohr mag/cell
     absolute magnetization    =     2.85 Bohr mag/cell

     iteration #  2     ecut=    30.00 Ry     beta= 0.50
     Davidson diagonalization with overlap
     ethr =  3.76E-03,  avg # of iterations =  1.7

     total cpu time spent up to now is        0.9 secs

     total energy              =     -55.75617591 Ry
     estimated scf accuracy    <       0.03453003 Ry

     total magnetization       =     2.67 Bohr mag/cell
     absolute magnetization    =     2.68 Bohr mag/cell

     iteration #  3     ecut=    30.00 Ry     beta= 0.50
     Davidson diagonalization with overlap
     ethr =  4.32E-04,  avg # of iterations =  1.4

     total cpu time spent up to now is        1.0 secs

     total energy              =     -55.77814063 Ry
     estimated scf accuracy    <       0.01141951 Ry

     total magnetization       =     2.48 Bohr mag/cell
     absolute magnetization    =     2.50 Bohr mag/cell

     iteration #  4     ecut=    30.00 Ry     beta= 0.50
     Davidson diagonalization with overlap
     ethr =  1.43E-04,  avg # of iterations =  1.6

     total cpu time spent up to now is        1.2 secs

     total energy              =     -55.78857360 Ry
     estimated scf accuracy    <       0.00043563 Ry

     total magnetization       =     2.12 Bohr mag/cell
     absolute magnetization    =     2.24 Bohr mag/cell

     iteration #  5     ecut=    30.00 Ry     beta= 0.50
     Davidson diagonalization with overlap
     ethr =  5.45E-06,  avg # of iterations =  5.9

     total cpu time spent up to now is        1.5 secs

     total energy              =     -55.78883625 Ry
     estimated scf accuracy    <       0.00014808 Ry

     total magnetization       =     2.12 Bohr mag/cell
     absolute magnetization    =     2.24 Bohr mag/cell

     iteration #  6     ecut=    30.00 Ry     beta= 0.50
     Davidson diagonalization with overlap
     ethr =  1.85E-06,  avg # of iterations =  2.3

     total cpu time spent up to now is        1.7 secs

     total energy              =     -55.78891908 Ry
     estimated scf accuracy    <       0.00001136 Ry

     total magnetization       =     2.10 Bohr mag/cell
     absolute magnetization    =     2.22 Bohr mag/cell

     iteration #  7     ecut=    30.00 Ry     beta= 0.50
     Davidson diagonalization with overlap
     ethr =  1.42E-07,  avg # of iterations =  3.5

     total cpu time spent up to now is        1.9 secs

     total energy              =     -55.78892426 Ry
     estimated scf accuracy    <       0.00000946 Ry

     total magnetization       =     2.10 Bohr mag/cell
     absolute magnetization    =     2.22 Bohr mag/cell

     iteration #  8     ecut=    30.00 Ry     beta= 0.50
     Davidson diagonalization with overlap
     ethr =  1.18E-07,  avg # of iterations =  1.5

     total cpu time spent up to now is        2.0 secs

     total energy              =     -55.78892709 Ry
     estimated scf accuracy    <       0.00000201 Ry

     total magnetization       =     2.10 Bohr mag/cell
     absolute magnetization    =     2.21 Bohr mag/cell

     iteration #  9     ecut=    30.00 Ry     beta= 0.50
     Davidson diagonalization with overlap
     ethr =  2.51E-08,  avg # of iterations =  2.3

     total cpu time spent up to now is        2.2 secs

     total energy              =     -55.78892738 Ry
     estimated scf accuracy    <       0.00000086 Ry

     total magnetization       =     2.10 Bohr mag/cell
     absolute magnetization    =     2.21 Bohr mag/cell

     iteration # 10     ecut=    30.00 Ry     beta= 0.50
     Davidson diagonalization with overlap
     ethr =  1.08E-08,  avg # of iterations =  2.1

     total cpu time spent up to now is        2.4 secs

     total energy              =     -55.78892807 Ry
     estimated scf accuracy    <       0.00000022 Ry

     total magnetization       =     2.10 Bohr mag/cell
     absolute magnetization    =     2.21 Bohr mag/cell

     iteration # 11     ecut=    30.00 Ry     beta= 0.50
     Davidson diagonalization with overlap
     ethr =  2.73E-09,  avg # of iterations =  2.4

     Magnetic moment per site  (integrated on atomic sphere of radius R)
     atom   1 (R=0.413)  charge=  6.3568  magn=  2.1399

     total cpu time spent up to now is        2.5 secs

     End of self-consistent calculation

 ------ SPIN UP ------------


          k = 0.0000 0.0000 0.0000 (   177 PWs)   bands (ev):

     7.0896  13.5963  13.5963  13.5963  15.1276  15.1276  42.3956  42.3956

          k = 0.0866 0.0866 0.0000 (   189 PWs)   bands (ev):

     7.5528  13.4572  13.5772  13.8669  14.9988  15.1391  40.3448  41.8784

          k = 0.1732 0.1732 0.0000 (   186 PWs)   bands (ev):

     8.8031  13.1054  13.4599  14.6133  14.8782  15.1823  36.1761  40.0506

          k = 0.2598 0.2598 0.0000 (   182 PWs)   bands (ev):

    10.1567  12.6918  13.7440  15.0210  15.2596  15.6272  31.4779  37.8996

          k = 0.3464 0.3464 0.0000 (   184 PWs)   bands (ev):

    10.5330  12.3722  15.0415  15.3424  15.6718  16.5452  27.2156  36.3610

          k =-0.4330-0.4330 0.0000 (   186 PWs)   bands (ev):

    10.4999  12.2534  15.2180  15.3795  16.9257  16.9909  25.0847  35.8116

          k = 0.1732 0.0866 0.0866 (   184 PWs)   bands (ev):

     8.4207  13.2895  13.3672  14.4375  14.8258  15.2110  38.0123  39.4076

          k = 0.2598 0.1732 0.0866 (   182 PWs)   bands (ev):

     9.8375  12.9056  13.1946  14.8088  15.3080  15.4826  33.9622  37.0337

          k = 0.3464 0.2598 0.0866 (   183 PWs)   bands (ev):

    10.7349  12.5367  13.7923  15.0463  15.4863  16.7972  29.3910  35.3697

          k = 0.4330 0.3464 0.0866 (   184 PWs)   bands (ev):

    10.7540  12.3306  14.6483  15.1872  15.9638  18.3430  25.7641  34.4370

          k = 0.3464 0.1732 0.1732 (   182 PWs)   bands (ev):

    11.0319  12.5875  13.0326  14.8631  15.4949  16.9940  31.7250  32.8837

          k = 0.4330 0.2598 0.1732 (   182 PWs)   bands (ev):

    11.4023  12.4007  13.4251  15.0914  15.6723  19.1251  27.7656  31.1346

          k = 0.5196 0.3464 0.1732 (   189 PWs)   bands (ev):

    11.3366  12.3805  13.6752  15.2017  15.8216  20.8735  25.2068  30.6366

          k = 0.5196 0.2598 0.2598 (   183 PWs)   bands (ev):

    11.8541  12.4189  13.0017  15.3240  15.6342  22.1493  25.9221  27.9164

          k = 0.1732 0.1732 0.1732 (   186 PWs)   bands (ev):

     9.5830  12.9324  12.9324  15.0767  15.0767  15.4866  36.0526  36.0526

          k = 0.2598 0.2598 0.1732 (   179 PWs)   bands (ev):

    10.9396  12.5412  12.8313  15.1106  15.2578  16.9247  31.8573  34.3529

          k = 0.3464 0.3464 0.1732 (   182 PWs)   bands (ev):

    11.2143  12.2828  13.8479  15.2374  15.3612  18.7560  27.5711  33.1986

          k = 0.4330 0.4330 0.1732 (   180 PWs)   bands (ev):

    11.1279  12.1935  14.5097  15.2975  15.3955  20.1788  25.1843  32.7883

          k = 0.0000 0.0000 0.1732 (   185 PWs)   bands (ev):

     7.9999  13.6041  13.6041  13.8658  14.6618  15.3103  39.3519  41.7512

          k = 0.3464 0.2598 0.2598 (   184 PWs)   bands (ev):

    11.8088  12.3548  12.7851  15.2217  15.3815  18.9391  29.8737  30.9081

          k = 0.4330 0.3464 0.2598 (   184 PWs)   bands (ev):

    11.7584  12.2768  13.3980  15.3318  15.4468  21.4328  26.2945  29.6821

          k = 0.0000-0.0866 0.2598 (   184 PWs)   bands (ev):

     9.1974  13.3559  13.4983  14.3898  14.5435  15.4912  36.3352  39.4396

          k = 0.5196 0.3464 0.3464 (   173 PWs)   bands (ev):

    11.9141  12.7744  12.7744  15.4253  15.4253  24.5105  24.5105  27.4190

          k = 0.0000-0.1732 0.3464 (   185 PWs)   bands (ev):

    10.4829  12.9768  13.3265  14.7228  15.5669  15.8392  31.7758  37.4243

          k = 0.0866-0.0866 0.3464 (   184 PWs)   bands (ev):

    10.4205  13.0142  13.4234  14.3201  15.2723  15.9531  34.1066  35.4601

          k = 0.0000-0.2598 0.4330 (   182 PWs)   bands (ev):

    10.8163  12.6793  13.7806  14.9951  16.5030  17.1972  27.4259  36.1179

          k = 0.0866-0.1732 0.4330 (   182 PWs)   bands (ev):

    11.2271  12.6438  13.3226  14.7112  15.8750  17.4687  29.9246  33.2952

          k =-0.8660-0.3464-0.3464 (   188 PWs)   bands (ev):

    10.7613  12.5682  14.0760  14.9802  16.8928  18.6009  25.1291  35.6548

          k =-0.7794-0.2598-0.3464 (   183 PWs)   bands (ev):

    11.2021  12.7716  13.2398  14.9094  16.4246  19.7639  26.0236  32.3259

          k =-0.6928-0.1732-0.3464 (   187 PWs)   bands (ev):

    11.8537  12.1419  13.1550  15.0542  15.9950  20.1755  28.0561  29.2880

          k =-0.6928-0.2598-0.2598 (   189 PWs)   bands (ev):

    11.8255  12.5408  12.6610  15.3275  16.0259  22.6641  25.2957  28.4361

          k = 0.3464 0.3464 0.3464 (   183 PWs)   bands (ev):

    12.2802  12.2802  12.7844  15.3838  15.3838  21.4912  28.7046  28.7047

          k = 0.4330 0.4330 0.3464 (   180 PWs)   bands (ev):

    12.2722  12.2909  12.9547  15.4109  15.4214  24.0145  25.8003  28.3054

          k = 0.0000 0.0000 0.3464 (   185 PWs)   bands (ev):

    10.1947  13.4526  13.8340  13.8340  14.5866  15.9493  36.2575  37.9268

          k = 0.0000-0.0866 0.4330 (   184 PWs)   bands (ev):

    11.1606  12.6808  13.7502  14.3388  15.4352  16.8777  32.6483  35.7039

          k = 0.0000-0.1732 0.5196 (   186 PWs)   bands (ev):

    11.3453  12.4654  13.5411  14.6588  16.3944  19.0104  28.1011  34.0382

          k = 0.0866-0.0866 0.5196 (   186 PWs)   bands (ev):

    11.5960  12.0233  13.8733  14.7451  15.9748  18.8510  30.6929  31.4193

          k =-0.8660-0.2598-0.2598 (   188 PWs)   bands (ev):

    11.2203  12.5564  13.4565  14.6959  16.8072  21.0253  25.3334  33.3953

          k =-0.7794-0.1732-0.2598 (   191 PWs)   bands (ev):

    11.4736  11.9344  13.6681  15.1504  16.4430  21.7773  26.7038  30.0811

          k =-0.6928-0.1732-0.1732 (   191 PWs)   bands (ev):

    11.6348  11.6348  13.5355  15.9829  15.9829  25.0361  25.0361  27.4367

          k = 0.0000 0.0000 0.5196 (   188 PWs)   bands (ev):

    11.4495  12.0026  14.6052  14.6052  15.5104  18.4275  33.1383  33.1383

          k = 0.0000-0.0866 0.6062 (   192 PWs)   bands (ev):

    11.3202  11.4846  14.7588  15.0677  16.2710  20.9692  29.1480  31.2582

          k =-0.8660-0.1732-0.1732 (   186 PWs)   bands (ev):

    11.1244  11.4092  14.7329  15.2169  16.7025  23.6185  25.8685  30.5331

          k =-0.7794-0.0866-0.1732 (   192 PWs)   bands (ev):

    11.0706  11.1175  14.8846  15.8851  16.4557  23.9624  27.5816  28.3005

          k = 0.0000 0.0000 0.6928 (   188 PWs)   bands (ev):

    10.8809  10.8995  15.8407  15.8407  16.2843  23.4041  29.1800  29.1800

          k =-0.8660-0.0866-0.0866 (   182 PWs)   bands (ev):

    10.6740  10.7033  16.0048  16.1616  16.6184  26.1156  26.8198  28.3599

          k =-0.8660-0.8660-0.8660 (   188 PWs)   bands (ev):

    10.4651  10.4651  16.5864  16.5864  16.5864  27.4874  27.4874  27.4874

 ------ SPIN DOWN ----------


          k = 0.0000 0.0000 0.0000 (   177 PWs)   bands (ev):

     7.2056  15.6154  15.6154  15.6154  18.0455  18.0455  42.1817  42.1817

          k = 0.0866 0.0866 0.0000 (   189 PWs)   bands (ev):

     7.6727  15.4494  15.5767  15.9077  17.8715  18.0580  40.4430  41.7744

          k = 0.1732 0.1732 0.0000 (   186 PWs)   bands (ev):

     8.9660  15.0330  15.3767  16.7191  17.6412  18.1108  36.6855  40.1131

          k = 0.2598 0.2598 0.0000 (   182 PWs)   bands (ev):

    10.6351  14.5493  15.2408  17.6887  17.8348  18.2139  32.2992  37.9743

          k = 0.3464 0.3464 0.0000 (   184 PWs)   bands (ev):

    11.6540  14.1791  16.0938  17.8579  18.3301  18.8635  28.3621  36.3901

          k =-0.4330-0.4330 0.0000 (   186 PWs)   bands (ev):

    11.8273  14.0423  17.0625  17.9086  18.3837  19.2966  26.5130  35.8163

          k = 0.1732 0.0866 0.0866 (   184 PWs)   bands (ev):

     8.5588  15.2369  15.3319  16.5114  17.6214  18.1354  38.3455  39.6723

          k = 0.2598 0.1732 0.0866 (   182 PWs)   bands (ev):

    10.1013  14.7879  15.0226  17.4902  17.5738  18.2745  34.6176  37.3973

          k = 0.3464 0.2598 0.0866 (   183 PWs)   bands (ev):

    11.5726  14.3515  15.1347  17.6698  18.3508  18.8860  30.3326  35.7187

          k = 0.4330 0.3464 0.0866 (   184 PWs)   bands (ev):

    12.0617  14.1078  16.0104  17.8455  18.5302  19.9983  27.0529  34.7548

          k = 0.3464 0.1732 0.1732 (   182 PWs)   bands (ev):

    11.6183  14.4133  14.6839  17.4977  18.3360  19.0606  32.5136  33.4840

          k = 0.4330 0.2598 0.1732 (   182 PWs)   bands (ev):

    12.6289  14.1376  14.8360  17.7169  18.4274  20.8194  28.7720  31.7905

          k = 0.5196 0.3464 0.1732 (   189 PWs)   bands (ev):

    12.7676  14.1021  15.1356  17.8565  18.4683  22.1771  26.4888  31.2834

          k = 0.5196 0.2598 0.2598 (   183 PWs)   bands (ev):

    13.3685  14.0409  14.5198  17.9583  18.3074  23.4616  26.9971  28.7464

          k = 0.1732 0.1732 0.1732 (   186 PWs)   bands (ev):

     9.7722  14.8177  14.8177  17.5810  17.9315  17.9315  36.5145  36.5145

          k = 0.2598 0.2598 0.1732 (   179 PWs)   bands (ev):

    11.4001  14.3372  14.5027  17.9044  18.1853  18.9505  32.5925  34.8383

          k = 0.3464 0.3464 0.1732 (   182 PWs)   bands (ev):

    12.3870  14.0156  14.9915  18.0090  18.3471  20.4743  28.5953  33.6603

          k = 0.4330 0.4330 0.1732 (   180 PWs)   bands (ev):

    12.4948  13.9038  15.6249  18.0687  18.4047  21.4972  26.4998  33.2342

          k = 0.0000 0.0000 0.1732 (   185 PWs)   bands (ev):

     8.1265  15.5903  15.5903  15.9101  17.4446  18.2641  39.4965  41.8734

          k = 0.3464 0.2598 0.2598 (   184 PWs)   bands (ev):

    12.7817  14.0321  14.2030  18.0512  18.3275  20.7041  30.6870  31.5847

          k = 0.4330 0.3464 0.2598 (   184 PWs)   bands (ev):

    13.1717  13.8915  14.6672  18.1714  18.3999  22.7672  27.3496  30.3864

          k = 0.0000-0.0866 0.2598 (   184 PWs)   bands (ev):

     9.3787  15.2943  15.4647  16.6411  16.9963  18.4384  36.8456  39.6944

          k = 0.5196 0.3464 0.3464 (   173 PWs)   bands (ev):

    13.4552  14.2093  14.2093  18.3212  18.3212  25.5820  25.5820  28.2931

          k = 0.0000-0.1732 0.3464 (   185 PWs)   bands (ev):

    10.9922  14.8514  15.1198  17.1421  17.7658  18.6316  32.5898  37.6635

          k = 0.0866-0.0866 0.3464 (   184 PWs)   bands (ev):

    10.7847  15.0315  15.2753  16.7220  17.4578  18.7239  34.8176  35.9946

          k = 0.0000-0.2598 0.4330 (   182 PWs)   bands (ev):

    11.9922  14.5068  15.3632  17.4883  18.8154  19.2043  28.5365  36.3332

          k = 0.0866-0.1732 0.4330 (   182 PWs)   bands (ev):

    12.1514  14.5101  15.0865  17.0635  18.3250  19.5503  30.8334  33.9122

          k =-0.8660-0.3464-0.3464 (   188 PWs)   bands (ev):

    12.1548  14.3788  15.7634  17.5399  19.2599  19.9572  26.5158  35.8561

          k =-0.7794-0.2598-0.3464 (   183 PWs)   bands (ev):

    12.6426  14.5644  14.9356  17.3438  18.8030  21.2310  27.2250  32.9370

          k =-0.6928-0.1732-0.3464 (   187 PWs)   bands (ev):

    13.1773  13.9753  14.9290  17.4021  18.4335  21.7342  29.0821  30.0251

          k =-0.6928-0.2598-0.2598 (   189 PWs)   bands (ev):

    13.4567  14.2360  14.4170  17.7081  18.4169  23.8878  26.4794  29.2300

          k = 0.3464 0.3464 0.3464 (   183 PWs)   bands (ev):

    13.8549  13.8552  13.8552  18.3502  18.3502  22.8864  29.5171  29.5171

          k = 0.4330 0.4330 0.3464 (   180 PWs)   bands (ev):

    13.7237  13.8090  14.3017  18.3805  18.4387  25.0751  26.8273  29.1146

          k = 0.0000 0.0000 0.3464 (   185 PWs)   bands (ev):

    10.4878  15.7735  15.7735  15.9153  16.7010  18.7849  36.8266  38.5113

          k = 0.0000-0.0866 0.4330 (   184 PWs)   bands (ev):

    11.8512  14.8279  15.6714  16.4181  17.6206  19.2761  33.4356  36.3226

          k = 0.0000-0.1732 0.5196 (   186 PWs)   bands (ev):

    12.7164  14.2928  15.4328  16.8817  18.6921  20.6504  29.0978  34.6146

          k = 0.0866-0.0866 0.5196 (   186 PWs)   bands (ev):

    12.7950  14.0610  15.8030  16.8351  18.2571  20.5774  31.5881  32.0675

          k =-0.8660-0.2598-0.2598 (   188 PWs)   bands (ev):

    12.8400  14.3087  15.3358  16.9401  19.1646  22.2120  26.5732  33.9354

          k =-0.7794-0.1732-0.2598 (   191 PWs)   bands (ev):

    13.1921  13.7243  15.5415  17.3148  18.7570  23.0150  27.7161  30.7750

          k =-0.6928-0.1732-0.1732 (   191 PWs)   bands (ev):

    13.4610  13.4610  15.3181  18.2351  18.2351  26.0821  26.0821  28.2078

          k = 0.0000 0.0000 0.5196 (   188 PWs)   bands (ev):

    12.6144  14.1419  16.5737  16.5737  17.7213  20.2322  33.7396  33.7396

          k = 0.0000-0.0866 0.6062 (   192 PWs)   bands (ev):

    12.9471  13.4358  16.7635  17.1083  18.5551  22.1975  29.9091  31.7868

          k =-0.8660-0.1732-0.1732 (   186 PWs)   bands (ev):

    12.9783  13.2185  16.7411  17.2688  19.0484  24.5452  26.8089  31.0092

          k =-0.7794-0.0866-0.1732 (   192 PWs)   bands (ev):

    12.9137  12.9740  16.8709  18.0562  18.7536  24.8588  28.3256  28.8736

          k = 0.0000 0.0000 0.6928 (   188 PWs)   bands (ev):

    12.6723  12.8110  17.9836  17.9836  18.5820  24.2100  29.5950  29.5950

          k =-0.8660-0.0866-0.0866 (   182 PWs)   bands (ev):

    12.5491  12.5505  18.2072  18.3705  18.9549  26.6617  27.3211  28.6907

          k =-0.8660-0.8660-0.8660 (   188 PWs)   bands (ev):

    12.3255  12.3255  18.9194  18.9194  18.9194  27.7056  27.7056  27.7056

     the Fermi energy is    16.4191 ev

!    total energy              =     -55.78892818 Ry
     estimated scf accuracy    <       0.00000002 Ry
     smearing contrib. (-TS)   =       0.00000158 Ry
     internal energy E=F+TS    =     -55.78892976 Ry

     The total energy is F=E-TS. E is the sum of the following terms:
     one-electron contribution =      10.66210264 Ry
     hartree contribution      =       5.74544859 Ry
     xc contribution           =     -26.54790246 Ry
     ewald contribution        =     -45.64857853 Ry

     total magnetization       =     2.10 Bohr mag/cell
     absolute magnetization    =     2.21 Bohr mag/cell

     convergence has been achieved in  11 iterations

     Forces acting on atoms (cartesian axes, Ry/au):

     atom    1 type  1   force =     0.00000000    0.00000000    0.00000000

     Total force =     0.000000     Total SCF correction =     0.000000


     Computing stress (Cartesian axis) and pressure

          total   stress  (Ry/bohr**3)                   (kbar)     P=      417.04
   0.00283501   0.00000000  -0.00000000          417.04        0.00       -0.00
   0.00000000   0.00283501  -0.00000000            0.00      417.04       -0.00
  -0.00000000  -0.00000000   0.00283501           -0.00       -0.00      417.04


     BFGS Geometry Optimization
     Energy error            =      3.6E-02 Ry
     Gradient error          =      0.0E+00 Ry/Bohr
     Cell gradient error     =      4.2E+02 kbar

     number of scf cycles    =   1
     number of bfgs steps    =   0

     enthalpy           new  =     -55.7889281779 Ry

     new trust radius        =       0.1155189624 bohr
     new conv_thr            =       0.0000001000 Ry

     new unit-cell volume =     81.55949 a.u.^3 (    12.08587 Ang^3 )
     density =      7.67283 g/cm^3

CELL_PARAMETERS (angstrom)
  -1.445681528   1.445681528   1.445681528
   1.445681528  -1.445681528   1.445681528
   1.445681528   1.445681528  -1.445681528

ATOMIC_POSITIONS (angstrom)
Fe               0.0000000000        0.0000000000        0.0000000000


     Message from routine punch:
     Nothing written, as per user request (disk_io='none')
     NEW-OLD atomic charge density approx. for the potential
     New effective cutoffs (rho, wfc):  259.19   26.16

     Check: negative core charge=   -0.000002
     Generating pointlists ...

     total cpu time spent up to now is        2.7 secs

     Self-consistent Calculation

     iteration #  1     ecut=    30.00 Ry     beta= 0.50
     Davidson diagonalization with overlap
     ethr =  1.00E-06,  avg # of iterations =  6.9

     total cpu time spent up to now is        3.1 secs

     total energy              =     -55.79902603 Ry
     estimated scf accuracy    <       0.00151937 Ry

     total magnetization       =     2.20 Bohr mag/cell
     absolute magnetization    =     2.34 Bohr mag/cell

     iteration #  2     ecut=    30.00 Ry     beta= 0.50
     Davidson diagonalization with overlap
     ethr =  1.90E-05,  avg # of iterations =  1.0

     total cpu time spent up to now is        3.2 secs

     total energy              =     -55.79944607 Ry
     estimated scf accuracy    <       0.00096919 Ry

     total magnetization       =     2.25 Bohr mag/cell
     absolute magnetization    =     2.39 Bohr mag/cell

     iteration #  3     ecut=    30.00 Ry     beta= 0.50
     Davidson diagonalization with overlap
     ethr =  1.21E-05,  avg # of iterations =  1.0

     total cpu time spent up to now is        3.4 secs

     total energy              =     -55.79973721 Ry
     estimated scf accuracy    <       0.00039115 Ry

     total magnetization       =     2.26 Bohr mag/cell
     absolute magnetization    =     2.41 Bohr mag/cell

     iteration #  4     ecut=    30.00 Ry     beta= 0.50
     Davidson diagonalization with overlap
     ethr =  4.89E-06,  avg # of iterations =  1.7

     total cpu time spent up to now is        3.5 secs

     total energy              =     -55.79957022 Ry
     estimated scf accuracy    <       0.00008084 Ry

     total magnetization       =     2.34 Bohr mag/cell
     absolute magnetization    =     2.51 Bohr mag/cell

     iteration #  5     ecut=    30.00 Ry     beta= 0.50
     Davidson diagonalization with overlap
     ethr =  1.01E-06,  avg # of iterations =  2.8

     total cpu time spent up to now is        3.7 secs

     total energy              =     -55.80025149 Ry
     estimated scf accuracy    <       0.00000859 Ry

     total magnetization       =     2.46 Bohr mag/cell
     absolute magnetization    =     2.65 Bohr mag/cell

     iteration #  6     ecut=    30.00 Ry     beta= 0.50
     Davidson diagonalization with overlap
     ethr =  1.07E-07,  avg # of iterations =  2.8

     total cpu time spent up to now is        3.9 secs

     total energy              =     -55.80022430 Ry
     estimated scf accuracy    <       0.00001363 Ry

     total magnetization       =     2.43 Bohr mag/cell
     absolute magnetization    =     2.60 Bohr mag/cell

     iteration #  7     ecut=    30.00 Ry     beta= 0.50
     Davidson diagonalization with overlap
     ethr =  1.07E-07,  avg # of iterations =  2.6

     total cpu time spent up to now is        4.1 secs

     total energy              =     -55.80034719 Ry
     estimated scf accuracy    <       0.00000359 Ry

     total magnetization       =     2.48 Bohr mag/cell
     absolute magnetization    =     2.66 Bohr mag/cell

     iteration #  8     ecut=    30.00 Ry     beta= 0.50
     Davidson diagonalization with overlap
     ethr =  4.49E-08,  avg # of iterations =  1.5

     Magnetic moment per site  (integrated on atomic sphere of radius R)
     atom   1 (R=0.413)  charge=  6.1463  magn=  2.5317

     total cpu time spent up to now is        4.2 secs

     End of self-consistent calculation

 ------ SPIN UP ------------


          k = 0.0000 0.0000 0.0000 (   177 PWs)   bands (ev):

     4.4673  10.1364  10.1364  10.1364  11.2757  11.2757  36.6781  36.6781

          k = 0.0809 0.0809 0.0000 (   189 PWs)   bands (ev):

     4.8614  10.0382  10.1269  10.3364  11.1866  11.2839  34.3477  36.0321

          k = 0.1617 0.1617 0.0000 (   186 PWs)   bands (ev):

     5.9514   9.7873  10.0564  10.8862  11.0949  11.3124  29.9823  34.1003

          k = 0.2426 0.2426 0.0000 (   182 PWs)   bands (ev):

     7.2570   9.4888  10.2694  11.1867  11.3622  11.6291  25.4051  32.1216

          k = 0.3235 0.3235 0.0000 (   184 PWs)   bands (ev):

     7.7772   9.2559  11.2156  11.4150  11.8591  12.2959  21.3593  30.7796

          k =-0.4044-0.4044-0.0000 (   186 PWs)   bands (ev):

     7.8032   9.1688  11.3186  11.4383  12.5701  13.1652  19.2730  30.3097

          k = 0.1617 0.0809 0.0809 (   184 PWs)   bands (ev):

     5.6102   9.9212   9.9832  10.7564  11.0638  11.3315  31.9710  33.0957

          k = 0.2426 0.1617 0.0809 (   182 PWs)   bands (ev):

     6.8865   9.6481   9.8655  11.0434  11.3939  11.5297  27.8332  30.8129

          k = 0.3235 0.2426 0.0809 (   183 PWs)   bands (ev):

     7.8582   9.3783  10.3120  11.2065  11.5216  12.5463  23.4462  29.3224

          k = 0.4044 0.3235 0.0809 (   184 PWs)   bands (ev):

     7.9917   9.2260  10.9654  11.3016  11.9126  13.9744  19.9807  28.4991

          k = 0.3235 0.1617 0.1617 (   182 PWs)   bands (ev):

     8.0181   9.4360   9.7269  11.0791  11.5216  12.6947  25.8409  26.5773

          k = 0.4044 0.2426 0.1617 (   182 PWs)   bands (ev):

     8.4715   9.2865  10.0388  11.2387  11.6540  14.4995  21.9968  25.1010

          k = 0.4852 0.3235 0.1617 (   189 PWs)   bands (ev):

     8.4566   9.2654  10.2452  11.3144  11.7723  16.1650  19.5146  24.6743

          k = 0.4852 0.2426 0.2426 (   183 PWs)   bands (ev):

     8.8497   9.3046   9.7321  11.4056  11.6284  17.1668  20.5393  21.8917

          k = 0.1617 0.1617 0.1617 (   186 PWs)   bands (ev):

     6.6302   9.6709   9.6709  11.2344  11.2344  11.5315  29.9993  29.9993

          k = 0.2426 0.2426 0.1617 (   179 PWs)   bands (ev):

     7.8989   9.3832   9.5888  11.2520  11.3577  12.6318  25.8624  28.4221

          k = 0.3235 0.3235 0.1617 (   182 PWs)   bands (ev):

     8.3176   9.1905  10.3521  11.3372  11.4267  14.1834  21.7761  27.3987

          k = 0.4044 0.4044 0.1617 (   180 PWs)   bands (ev):

     8.2876   9.1234  10.8772  11.3778  11.4491  15.5741  19.4446  27.0431

          k = 0.0000 0.0000 0.1617 (   185 PWs)   bands (ev):

     5.2448  10.1480  10.1480  10.3377  10.9549  11.4008  33.5887  35.3447

          k = 0.3235 0.2426 0.2426 (   184 PWs)   bands (ev):

     8.7507   9.2508   9.5240  11.3294  11.4406  14.2895  24.1579  24.8185

          k = 0.4044 0.3235 0.2426 (   184 PWs)   bands (ev):

     8.7725   9.1842  10.0152  11.4052  11.4865  16.5367  20.6767  23.7810

          k = 0.0000-0.0809 0.2426 (   184 PWs)   bands (ev):

     6.2972   9.9720  10.0911  10.7543  10.8373  11.5241  30.2138  33.1776

          k = 0.4852 0.3235 0.3235 (   173 PWs)   bands (ev):

     8.9015   9.5514   9.5514  11.4716  11.4716  19.3145  19.3145  21.4052

          k = 0.0000-0.1617 0.3235 (   185 PWs)   bands (ev):

     7.5388   9.6989   9.9809  10.9801  11.5868  11.7850  25.6865  31.4748

          k = 0.0809-0.0809 0.3235 (   184 PWs)   bands (ev):

     7.4246   9.7620  10.0238  10.6938  11.3715  11.8648  28.0725  28.9262

          k = 0.0000-0.2426 0.4044 (   182 PWs)   bands (ev):

     8.0113   9.4824  10.3254  11.1707  12.2659  12.9827  21.5757  30.3530

          k = 0.0809-0.1617 0.4044 (   182 PWs)   bands (ev):

     8.2734   9.4835   9.9611  10.9718  11.8049  13.1000  23.9659  27.0703

          k =-0.8087-0.3235-0.3235 (   188 PWs)   bands (ev):

     8.0174   9.4012  10.5484  11.1556  12.5465  14.3512  19.3429  29.9584

          k =-0.7278-0.2426-0.3235 (   183 PWs)   bands (ev):

     8.3617   9.5569   9.9241  11.1101  12.2144  15.1671  20.2861  26.2172

          k =-0.6470-0.1617-0.3235 (   187 PWs)   bands (ev):

     8.8319   9.1235   9.8458  11.2190  11.8957  15.4103  22.4120  23.2150

          k =-0.6470-0.2426-0.2426 (   189 PWs)   bands (ev):

     8.8608   9.4092   9.4715  11.4149  11.9231  17.6923  19.7577  22.5156

          k = 0.3235 0.3235 0.3235 (   183 PWs)   bands (ev):

     9.1847   9.1847   9.5194  11.4410  11.4410  16.5219  23.1100  23.1100

          k = 0.4044 0.4044 0.3235 (   180 PWs)   bands (ev):

     9.1746   9.1800   9.6793  11.4596  11.4666  18.8858  20.2797  22.7541

          k = 0.0000 0.0000 0.3235 (   185 PWs)   bands (ev):

     7.2019  10.1055  10.3263  10.3263  10.8726  11.8503  30.4916  31.1085

          k = 0.0000-0.0809 0.4044 (   184 PWs)   bands (ev):

     8.1566   9.5407  10.2687  10.7031  11.4941  12.5879  26.4923  29.0550

          k = 0.0000-0.1617 0.4852 (   186 PWs)   bands (ev):

     8.4661   9.3589  10.1178  10.9342  12.1889  14.4472  22.2540  27.5931

          k = 0.0809-0.0809 0.4852 (   186 PWs)   bands (ev):

     8.6231   9.0596  10.3640  10.9994  11.8845  14.2660  24.7564  25.2123

          k =-0.8087-0.2426-0.2426 (   188 PWs)   bands (ev):

     8.4111   9.4272  10.0563  10.9589  12.4851  16.3462  19.6187  27.0464

          k =-0.7278-0.1617-0.2426 (   191 PWs)   bands (ev):

     8.6212   8.9663  10.2113  11.2928  12.2255  16.8651  21.0336  24.1071

          k =-0.6470-0.1617-0.1617 (   191 PWs)   bands (ev):

     8.7536   8.7536  10.1096  11.8963  11.8963  19.7545  19.7545  21.5278

          k = 0.0000 0.0000 0.4852 (   188 PWs)   bands (ev):

     8.5054   9.0553  10.8984  10.8984  11.5497  13.8958  26.8054  26.8054

          k = 0.0000-0.0809 0.5661 (   192 PWs)   bands (ev):

     8.4987   8.6531  11.0116  11.2363  12.1009  16.1372  23.2990  25.2084

          k =-0.8087-0.1617-0.1617 (   186 PWs)   bands (ev):

     8.3836   8.5859  10.9929  11.3444  12.4098  18.5836  20.2640  24.6079

          k =-0.7278-0.0809-0.1617 (   192 PWs)   bands (ev):

     8.3529   8.3697  11.1040  11.8287  12.2347  18.8075  22.0251  22.5338

          k = 0.0000 0.0000 0.6470 (   188 PWs)   bands (ev):

     8.2057   8.2196  11.7976  11.7976  12.1097  18.3310  23.4764  23.4764

          k =-0.8087-0.0809-0.0809 (   182 PWs)   bands (ev):

     8.0598   8.0758  11.9132  12.0269  12.3493  20.8280  21.3509  22.8109

          k =-0.8087-0.8087-0.8087 (   188 PWs)   bands (ev):

     7.9055   7.9055  12.3263  12.3263  12.3263  22.1109  22.1109  22.1109

 ------ SPIN DOWN ----------


          k = 0.0000 0.0000 0.0000 (   177 PWs)   bands (ev):

     4.5290  12.6167  12.6167  12.6167  14.4873  14.4873  36.3210  36.3210

          k = 0.0809 0.0809 0.0000 (   189 PWs)   bands (ev):

     4.9258  12.4893  12.5840  12.8415  14.3585  14.4976  34.3816  35.8134

          k = 0.1617 0.1617 0.0000 (   186 PWs)   bands (ev):

     6.0515  12.1671  12.4042  13.4652  14.1831  14.5370  30.4791  34.0643

          k = 0.2426 0.2426 0.0000 (   182 PWs)   bands (ev):

     7.6423  11.7892  12.1637  14.2128  14.3233  14.6123  26.2437  32.0932

          k = 0.3235 0.3235 0.0000 (   184 PWs)   bands (ev):

     8.9660  11.4980  12.4989  14.3318  14.6966  15.1134  22.5950  30.7069

          k =-0.4044-0.4044-0.0000 (   186 PWs)   bands (ev):

     9.3414  11.3900  13.1393  14.3663  14.7349  15.4455  20.9029  30.2137

          k = 0.1617 0.0809 0.0809 (   184 PWs)   bands (ev):

     5.6898  12.3212  12.3916  13.3007  14.1708  14.5537  32.2483  33.3637

          k = 0.2426 0.1617 0.0809 (   182 PWs)   bands (ev):

     7.0777  11.9685  12.1084  14.0643  14.1128  14.6516  28.4824  31.1853

          k = 0.3235 0.2426 0.0809 (   183 PWs)   bands (ev):

     8.6449  11.6225  11.9935  14.1982  14.7093  15.0867  24.4259  29.6943

          k = 0.4044 0.3235 0.0809 (   184 PWs)   bands (ev):

     9.4819  11.4308  12.4707  14.3224  14.8317  15.9145  21.4127  28.8499

          k = 0.3235 0.1617 0.1617 (   182 PWs)   bands (ev):

     8.5372  11.6270  11.8260  14.0731  14.6987  15.1971  26.6168  27.2291

          k = 0.4044 0.2426 0.1617 (   182 PWs)   bands (ev):

     9.7964  11.3819  11.7719  14.2347  14.7609  16.5151  23.0525  25.7957

          k = 0.4852 0.3235 0.1617 (   189 PWs)   bands (ev):

    10.1380  11.3858  11.8893  14.3348  14.7949  17.6118  20.9528  25.3566

          k = 0.4852 0.2426 0.2426 (   183 PWs)   bands (ev):

    10.6614  11.2056  11.5300  14.4171  14.6750  18.6334  21.6672  22.8124

          k = 0.1617 0.1617 0.1617 (   186 PWs)   bands (ev):

     6.7605  11.9861  11.9861  14.1051  14.4016  14.4016  30.4220  30.4220

          k = 0.2426 0.2426 0.1617 (   179 PWs)   bands (ev):

     8.2935  11.6008  11.6719  14.3776  14.5897  15.1286  26.6067  28.8840

          k = 0.3235 0.3235 0.1617 (   182 PWs)   bands (ev):

     9.5766  11.3399  11.7930  14.4515  14.7085  16.2741  22.8670  27.8516

          k = 0.4044 0.4044 0.1617 (   180 PWs)   bands (ev):

     9.8942  11.2486  12.2065  14.4932  14.7503  17.0875  20.9352  27.4860

          k = 0.0000 0.0000 0.1617 (   185 PWs)   bands (ev):

     5.3142  12.5925  12.5925  12.8475  14.0398  14.6483  33.5925  35.5217

          k = 0.3235 0.2426 0.2426 (   184 PWs)   bands (ev):

     9.7069  11.2924  11.4024  14.4884  14.6924  16.4429  24.9873  25.5352

          k = 0.4044 0.3235 0.2426 (   184 PWs)   bands (ev):

    10.4345  11.1763  11.5575  14.5760  14.7461  18.0867  21.8185  24.5269

          k = 0.0000-0.0809 0.2426 (   184 PWs)   bands (ev):

     6.4127  12.3635  12.4790  13.4081  13.6988  14.7690  30.6962  33.3697

          k = 0.4852 0.3235 0.3235 (   173 PWs)   bands (ev):

    10.8075  11.2758  11.2758  14.6883  14.6883  20.4813  20.4813  22.3780

          k = 0.0000-0.1617 0.3235 (   185 PWs)   bands (ev):

     7.9583  12.0184  12.1217  13.7953  14.2719  14.8882  26.5092  31.6359

          k = 0.0809-0.0809 0.3235 (   184 PWs)   bands (ev):

     7.7096  12.1415  12.3247  13.4828  14.0298  14.9511  28.7438  29.5143

          k = 0.0000-0.2426 0.4044 (   182 PWs)   bands (ev):

     9.2534  11.7475  12.0916  14.0476  15.0771  15.2517  22.7619  30.4876

          k = 0.0809-0.1617 0.4044 (   182 PWs)   bands (ev):

     9.1644  11.6734  12.1356  13.7319  14.6932  15.5124  24.8915  27.7168

          k =-0.8087-0.3235-0.3235 (   188 PWs)   bands (ev):

     9.6245  11.6465  12.3470  14.0868  15.4178  15.7937  20.9164  30.0791

          k =-0.7278-0.2426-0.3235 (   183 PWs)   bands (ev):

     9.9863  11.6508  11.9163  13.9387  15.0489  16.7968  21.5954  26.8498

          k =-0.6470-0.1617-0.3235 (   187 PWs)   bands (ev):

    10.2901  11.2342  11.9874  13.9905  14.7628  17.1805  23.4497  24.0188

          k =-0.6470-0.2426-0.2426 (   189 PWs)   bands (ev):

    10.7400  11.3001  11.6103  14.2187  14.7572  18.9851  21.0367  23.3752

          k = 0.3235 0.3235 0.3235 (   183 PWs)   bands (ev):

    10.7779  11.1250  11.1250  14.7102  14.7102  18.1654  23.9626  23.9626

          k = 0.4044 0.4044 0.3235 (   180 PWs)   bands (ev):

    10.9280  11.0778  11.3243  14.7321  14.7753  20.0616  21.4118  23.6129

          k = 0.0000 0.0000 0.3235 (   185 PWs)   bands (ev):

     7.4164  12.7186  12.7186  12.8743  13.4638  14.9944  30.9101  31.7524

          k = 0.0000-0.0809 0.4044 (   184 PWs)   bands (ev):

     8.7739  11.9899  12.6399  13.2182  14.1653  15.2940  27.2686  29.7201

          k = 0.0000-0.1617 0.4852 (   186 PWs)   bands (ev):

     9.8990  11.4447  12.4551  13.5729  14.9844  16.2799  23.2943  28.2059

          k = 0.0809-0.0809 0.4852 (   186 PWs)   bands (ev):

     9.8544  11.3791  12.7263  13.5394  14.6453  16.2163  25.6351  25.9073

          k =-0.8087-0.2426-0.2426 (   188 PWs)   bands (ev):

    10.2495  11.3475  12.3794  13.6108  15.3458  17.5695  21.0013  27.6190

          k =-0.7278-0.1617-0.2426 (   191 PWs)   bands (ev):

    10.5096  10.9971  12.5122  13.9031  15.0232  18.1927  22.0958  24.8313

          k =-0.6470-0.1617-0.1617 (   191 PWs)   bands (ev):

    10.8051  10.8051  12.3049  14.6181  14.6181  20.8219  20.8219  22.3958

          k = 0.0000 0.0000 0.4852 (   188 PWs)   bands (ev):

     9.6721  11.4814  13.3231  13.3231  14.2500  15.9290  27.4443  27.4443

          k = 0.0000-0.0809 0.5661 (   192 PWs)   bands (ev):

    10.2437  10.8903  13.4774  13.7296  14.8818  17.4683  24.0764  25.7621

          k =-0.8087-0.1617-0.1617 (   186 PWs)   bands (ev):

    10.4768  10.6063  13.4630  13.8408  15.2576  19.5157  21.2804  25.1030

          k =-0.7278-0.0809-0.1617 (   192 PWs)   bands (ev):

    10.3801  10.5075  13.5427  14.4780  15.0262  19.7341  22.7689  23.1461

          k = 0.0000 0.0000 0.6470 (   188 PWs)   bands (ev):

    10.1877  10.4113  14.4204  14.4204  14.9054  19.1640  23.8972  23.8972

          k =-0.8087-0.0809-0.0809 (   182 PWs)   bands (ev):

    10.1634  10.1853  14.6026  14.7213  15.1870  21.3642  21.8654  23.1371

          k =-0.8087-0.8087-0.8087 (   188 PWs)   bands (ev):

    10.0169  10.0169  15.1602  15.1602  15.1602  22.3111  22.3111  22.3111

     the Fermi energy is    12.5212 ev

!    total energy              =     -55.80035290 Ry
     estimated scf accuracy    <       0.00000007 Ry
     smearing contrib. (-TS)   =      -0.00029462 Ry
     internal energy E=F+TS    =     -55.80005827 Ry

     The total energy is F=E-TS. E is the sum of the following terms:
     one-electron contribution =       6.42318581 Ry
     hartree contribution      =       6.84436410 Ry
     xc contribution           =     -26.44025228 Ry
     ewald contribution        =     -42.62735589 Ry

     total magnetization       =     2.47 Bohr mag/cell
     absolute magnetization    =     2.65 Bohr mag/cell

     convergence has been achieved in   8 iterations

     Forces acting on atoms (cartesian axes, Ry/au):

     atom    1 type  1   force =     0.00000000    0.00000000    0.00000000

     Total force =     0.000000     Total SCF correction =     0.000000


     Computing stress (Cartesian axis) and pressure

          total   stress  (Ry/bohr**3)                   (kbar)     P=      -57.09
  -0.00038809  -0.00000000  -0.00000000          -57.09       -0.00       -0.00
  -0.00000000  -0.00038809  -0.00000000           -0.00      -57.09       -0.00
  -0.00000000  -0.00000000  -0.00038809           -0.00       -0.00      -57.09

     Energy error            =      1.1E-02 Ry
     Gradient error          =      0.0E+00 Ry/Bohr
     Cell gradient error     =      5.7E+01 kbar

     number of scf cycles    =   2
     number of bfgs steps    =   1

     enthalpy           old  =     -55.7889281779 Ry
     enthalpy           new  =     -55.8003528968 Ry

     CASE: enthalpy          _new < enthalpy          _old

     new trust radius        =       0.0162198601 bohr
     new conv_thr            =       0.0000000010 Ry

     new unit-cell volume =     79.38193 a.u.^3 (    11.76319 Ang^3 )
     density =      7.88331 g/cm^3

CELL_PARAMETERS (angstrom)
  -1.432699203   1.432699203   1.432699203
   1.432699203  -1.432699203   1.432699203
   1.432699203   1.432699203  -1.432699203

ATOMIC_POSITIONS (angstrom)
Fe               0.0000000000        0.0000000000        0.0000000000


     Message from routine punch:
     Nothing written, as per user request (disk_io='none')
     NEW-OLD atomic charge density approx. for the potential
     New effective cutoffs (rho, wfc):  263.91   26.63

     Check: negative core charge=   -0.000003
     Generating pointlists ...

     total cpu time spent up to now is        4.5 secs

     Self-consistent Calculation

     iteration #  1     ecut=    30.00 Ry     beta= 0.50
     Davidson diagonalization with overlap
     ethr =  1.00E-06,  avg # of iterations =  4.4

     total cpu time spent up to now is        4.7 secs

     total energy              =     -55.80088518 Ry
     estimated scf accuracy    <       0.00010213 Ry

     total magnetization       =     2.42 Bohr mag/cell
     absolute magnetization    =     2.60 Bohr mag/cell

     iteration #  2     ecut=    30.00 Ry     beta= 0.50
     Davidson diagonalization with overlap
     ethr =  1.28E-06,  avg # of iterations =  1.0

     total cpu time spent up to now is        4.9 secs

     total energy              =     -55.80091990 Ry
     estimated scf accuracy    <       0.00006695 Ry

     total magnetization       =     2.40 Bohr mag/cell
     absolute magnetization    =     2.58 Bohr mag/cell

     iteration #  3     ecut=    30.00 Ry     beta= 0.50
     Davidson diagonalization with overlap
     ethr =  8.37E-07,  avg # of iterations =  1.5

     total cpu time spent up to now is        5.1 secs

     total energy              =     -55.80101758 Ry
     estimated scf accuracy    <       0.00001545 Ry

     total magnetization       =     2.36 Bohr mag/cell
     absolute magnetization    =     2.53 Bohr mag/cell

     iteration #  4     ecut=    30.00 Ry     beta= 0.50
     Davidson diagonalization with overlap
     ethr =  1.93E-07,  avg # of iterations =  1.4

     total cpu time spent up to now is        5.3 secs

     total energy              =     -55.80099893 Ry
     estimated scf accuracy    <       0.00000600 Ry

     total magnetization       =     2.34 Bohr mag/cell
     absolute magnetization    =     2.51 Bohr mag/cell

     iteration #  5     ecut=    30.00 Ry     beta= 0.50
     Davidson diagonalization with overlap
     ethr =  7.50E-08,  avg # of iterations =  2.6

     total cpu time spent up to now is        5.6 secs

     total energy              =     -55.80105046 Ry
     estimated scf accuracy    <       0.00000014 Ry

     total magnetization       =     2.31 Bohr mag/cell
     absolute magnetization    =     2.48 Bohr mag/cell

     iteration #  6     ecut=    30.00 Ry     beta= 0.50
     Davidson diagonalization with overlap
     ethr =  1.71E-09,  avg # of iterations =  4.1

     total cpu time spent up to now is        5.9 secs

     total energy              =     -55.80105155 Ry
     estimated scf accuracy    <       0.00000005 Ry

     total magnetization       =     2.31 Bohr mag/cell
     absolute magnetization    =     2.48 Bohr mag/cell

     iteration #  7     ecut=    30.00 Ry     beta= 0.50
     Davidson diagonalization with overlap
     ethr =  5.79E-10,  avg # of iterations =  3.1

     total cpu time spent up to now is        6.1 secs

     total energy              =     -55.80105238 Ry
     estimated scf accuracy    <          2.9E-09 Ry

     total magnetization       =     2.31 Bohr mag/cell
     absolute magnetization    =     2.48 Bohr mag/cell

     iteration #  8     ecut=    30.00 Ry     beta= 0.50
     Davidson diagonalization with overlap
     ethr =  3.59E-11,  avg # of iterations =  4.5

     Magnetic moment per site  (integrated on atomic sphere of radius R)
     atom   1 (R=0.413)  charge=  6.1688  magn=  2.3756

     total cpu time spent up to now is        6.3 secs

     End of self-consistent calculation

 ------ SPIN UP ------------


          k = 0.0000 0.0000 0.0000 (   177 PWs)   bands (ev):

     4.7806  10.6074  10.6074  10.6074  11.7533  11.7533  37.3909  37.3909

          k = 0.0816 0.0816 0.0000 (   189 PWs)   bands (ev):

     5.1830  10.5042  10.5960  10.8158  11.6604  11.7621  35.0970  36.7608

          k = 0.1632 0.1632 0.0000 (   186 PWs)   bands (ev):

     6.2940  10.2407  10.5121  11.3891  11.5710  11.7925  30.7531  34.8395

          k = 0.2448 0.2448 0.0000 (   182 PWs)   bands (ev):

     7.6168   9.9278  10.7128  11.6776  11.8456  12.1646  26.1558  32.8368

          k = 0.3264 0.3264 0.0000 (   184 PWs)   bands (ev):

     8.1353   9.6841  11.6967  11.9020  12.3333  12.8616  22.0827  31.4698

          k =-0.4080-0.4080-0.0000 (   186 PWs)   bands (ev):

     8.1577   9.5930  11.8152  11.9269  13.1487  13.6246  19.9959  30.9899

          k = 0.1632 0.0816 0.0816 (   184 PWs)   bands (ev):

     5.9468  10.3801  10.4418  11.2534  11.5340  11.8131  32.7215  33.8890

          k = 0.2448 0.1632 0.0816 (   182 PWs)   bands (ev):

     7.2449  10.0920  10.3081  11.5211  11.8860  12.0513  28.5934  31.5905

          k = 0.3264 0.2448 0.0816 (   183 PWs)   bands (ev):

     8.2252   9.8103  10.7529  11.6996  12.0172  13.1002  24.1802  30.0791

          k = 0.4080 0.3264 0.0816 (   184 PWs)   bands (ev):

     8.3538   9.6518  11.4260  11.7969  12.4352  14.5194  20.6973  29.2435

          k = 0.3264 0.1632 0.1632 (   182 PWs)   bands (ev):

     8.3954   9.8538  10.1707  11.5628  12.0193  13.2526  26.5656  27.3629

          k = 0.4080 0.2448 0.1632 (   182 PWs)   bands (ev):

     8.8553   9.7041  10.4748  11.7327  12.1642  15.0822  22.7095  25.8474

          k = 0.4896 0.3264 0.1632 (   189 PWs)   bands (ev):

     8.8365   9.6878  10.6801  11.8113  12.2934  16.7456  20.2220  25.4119

          k = 0.4896 0.2448 0.2448 (   183 PWs)   bands (ev):

     9.2561   9.7090  10.1541  11.9091  12.1420  17.7835  21.2009  22.6389

          k = 0.1632 0.1632 0.1632 (   186 PWs)   bands (ev):

     6.9864  10.1135  10.1135  11.7147  11.7147  12.0591  30.7484  30.7484

          k = 0.2448 0.2448 0.1632 (   179 PWs)   bands (ev):

     8.2765   9.8136  10.0194  11.7386  11.8435  13.1940  26.6048  29.1552

          k = 0.3264 0.3264 0.1632 (   182 PWs)   bands (ev):

     8.6961   9.6136  10.8042  11.8312  11.9151  14.7656  22.4924  28.1160

          k = 0.4080 0.4080 0.1632 (   180 PWs)   bands (ev):

     8.6620   9.5441  11.3512  11.8742  11.9383  16.1462  20.1585  27.7539

          k = 0.0000 0.0000 0.1632 (   185 PWs)   bands (ev):

     5.5742  10.6181  10.6181  10.8170  11.4161  11.8852  34.2983  36.1594

          k = 0.3264 0.2448 0.2448 (   184 PWs)   bands (ev):

     9.1503   9.6665   9.9544  11.8197  11.9316  14.8832  24.8620  25.5781

          k = 0.4080 0.3264 0.2448 (   184 PWs)   bands (ev):

     9.1710   9.6012  10.4574  11.9000  11.9806  17.1478  21.3730  24.5118

          k = 0.0000-0.0816 0.2448 (   184 PWs)   bands (ev):

     6.6456  10.4331  10.5456  11.2158  11.3378  12.0152  30.9771  33.9521

          k = 0.4896 0.3264 0.3264 (   173 PWs)   bands (ev):

     9.3113   9.9758   9.9758  11.9678  11.9678  19.9560  19.9560  22.1536

          k =-0.0000-0.1632 0.3264 (   185 PWs)   bands (ev):

     7.9029  10.1468  10.4062  11.4663  12.1202  12.2857  26.4393  32.2099

          k = 0.0816-0.0816 0.3264 (   184 PWs)   bands (ev):

     7.7891  10.1869  10.4841  11.1658  11.8899  12.3734  28.8179  29.7410

          k = 0.0000-0.2448 0.4080 (   182 PWs)   bands (ev):

     8.3741   9.9202  10.7535  11.6622  12.8302  13.5000  22.2976  31.0651

          k = 0.0816-0.1632 0.4080 (   182 PWs)   bands (ev):

     8.6472   9.8931  10.4064  11.4602  12.3356  13.6472  24.7012  27.8419

          k =-0.8160-0.3264-0.3264 (   188 PWs)   bands (ev):

     8.3761   9.8352  10.9861  11.6460  13.1240  14.8638  20.0619  30.6620

          k =-0.7344-0.2448-0.3264 (   183 PWs)   bands (ev):

     8.7304   9.9892  10.3426  11.6025  12.7692  15.7311  20.9951  26.9739

          k =-0.6528-0.1632-0.3264 (   187 PWs)   bands (ev):

     9.2224   9.5107  10.2824  11.7226  12.4312  15.9996  23.1042  23.9673

          k =-0.6528-0.2448-0.2448 (   189 PWs)   bands (ev):

     9.2440   9.8035   9.9007  11.9273  12.4621  18.3003  20.4427  23.2457

          k = 0.3264 0.3264 0.3264 (   183 PWs)   bands (ev):

     9.6024   9.6024   9.9454  11.9320  11.9320  17.1447  23.8002  23.8002

          k = 0.4080 0.4080 0.3264 (   180 PWs)   bands (ev):

     9.5938   9.5955  10.1142  11.9516  11.9568  19.5206  20.9666  23.4394

          k = 0.0000 0.0000 0.3264 (   185 PWs)   bands (ev):

     7.5624  10.5251  10.8015  10.8015  11.3744  12.3560  31.1938  31.9604

          k = 0.0000-0.0816 0.4080 (   184 PWs)   bands (ev):

     8.5252   9.9380  10.7407  11.1871  12.0229  13.1148  27.2540  29.8818

          k = 0.0000-0.1632 0.4896 (   186 PWs)   bands (ev):

     8.8326   9.7468  10.5826  11.4233  12.7494  15.0053  22.9743  28.3928

          k = 0.0816-0.0816 0.4896 (   186 PWs)   bands (ev):

     8.9933   9.4358  10.8358  11.4996  12.4283  14.8283  25.4861  25.9814

          k =-0.8160-0.2448-0.2448 (   188 PWs)   bands (ev):

     8.7722   9.8173  10.5183  11.4481  13.0597  16.9127  20.3266  27.8339

          k =-0.7344-0.1632-0.2448 (   191 PWs)   bands (ev):

     8.9837   9.3387  10.6774  11.8046  12.7853  17.4654  21.7316  24.8441

          k =-0.6528-0.1632-0.1632 (   191 PWs)   bands (ev):

     9.1171   9.1171  10.5725  12.4385  12.4385  20.3994  20.3994  22.2612

          k = 0.0000 0.0000 0.4896 (   188 PWs)   bands (ev):

     8.8688   9.4275  11.3970  11.3970  12.0812  14.4489  27.5908  27.5908

          k = 0.0000-0.0816 0.5712 (   192 PWs)   bands (ev):

     8.8535   9.0098  11.5155  11.7480  12.6572  16.7267  24.0196  25.9575

          k =-0.8160-0.1632-0.1632 (   186 PWs)   bands (ev):

     8.7312   8.9408  11.4960  11.8599  12.9808  19.1956  20.9557  25.3413

          k =-0.7344-0.0816-0.1632 (   192 PWs)   bands (ev):

     8.6971   8.7161  11.6112  12.3695  12.7964  19.4377  22.7065  23.2470

          k = 0.0000 0.0000 0.6528 (   188 PWs)   bands (ev):

     8.5454   8.5573  12.3375  12.3375  12.6667  18.9508  24.1814  24.1814

          k =-0.8160-0.0816-0.0816 (   182 PWs)   bands (ev):

     8.3916   8.4087  12.4595  12.5780  12.9175  21.4754  22.0252  23.4963

          k =-0.8160-0.8160-0.8160 (   188 PWs)   bands (ev):

     8.2308   8.2308  12.8934  12.8934  12.8934  22.7744  22.7744  22.7744

 ------ SPIN DOWN ----------


          k = 0.0000 0.0000 0.0000 (   177 PWs)   bands (ev):

     4.8335  12.8838  12.8838  12.8838  14.8648  14.8648  37.0495  37.0495

          k = 0.0816 0.0816 0.0000 (   189 PWs)   bands (ev):

     5.2387  12.7531  12.8519  13.1157  14.7311  14.8753  35.1256  36.5544

          k = 0.1632 0.1632 0.0000 (   186 PWs)   bands (ev):

     6.3846  12.4228  12.6789  13.7587  14.5450  14.9157  31.2204  34.8157

          k = 0.2448 0.2448 0.0000 (   182 PWs)   bands (ev):

     7.9851  12.0356  12.4679  14.5677  14.6428  14.9932  26.9461  32.8242

          k = 0.3264 0.3264 0.0000 (   184 PWs)   bands (ev):

     9.2609  11.7374  12.8946  14.6881  15.0801  15.4564  23.2419  31.4150

          k =-0.4080-0.4080-0.0000 (   186 PWs)   bands (ev):

     9.5982  11.6267  13.6000  14.7259  15.1196  15.7980  21.5155  30.9128

          k = 0.1632 0.0816 0.0816 (   184 PWs)   bands (ev):

     6.0174  12.5825  12.6576  13.5903  14.5354  14.9327  32.9862  34.1318

          k = 0.2448 0.1632 0.0816 (   182 PWs)   bands (ev):

     7.4240  12.2227  12.3828  14.4003  14.4480  15.0341  29.2061  31.9365

          k = 0.3264 0.2448 0.0816 (   183 PWs)   bands (ev):

     8.9768  11.8691  12.3122  14.5506  15.0848  15.4496  25.1020  30.4237

          k = 0.4080 0.3264 0.0816 (   184 PWs)   bands (ev):

     9.7526  11.6715  12.8661  14.6796  15.2144  16.3155  22.0360  29.5663

          k = 0.3264 0.1632 0.1632 (   182 PWs)   bands (ev):

     8.8885  11.8960  12.0881  14.4228  15.0680  15.5750  27.3030  27.9658

          k = 0.4080 0.2448 0.1632 (   182 PWs)   bands (ev):

    10.1046  11.6498  12.0751  14.5867  15.1359  16.9511  23.7020  26.4951

          k = 0.4896 0.3264 0.1632 (   189 PWs)   bands (ev):

    10.4058  11.6371  12.2417  14.6915  15.1661  18.0965  21.5638  26.0480

          k = 0.4896 0.2448 0.2448 (   183 PWs)   bands (ev):

    10.9302  11.4956  11.8327  14.7732  15.0416  19.1535  22.2645  23.4909

          k = 0.1632 0.1632 0.1632 (   186 PWs)   bands (ev):

     7.1048  12.2441  12.2441  14.4236  14.7723  14.7723  31.1501  31.1501

          k = 0.2448 0.2448 0.1632 (   179 PWs)   bands (ev):

     8.6476  11.8500  11.9403  14.7428  14.9675  15.4877  27.3055  29.5923

          k = 0.3264 0.3264 0.1632 (   182 PWs)   bands (ev):

     9.8827  11.5829  12.1219  14.8163  15.0917  16.6866  23.5150  28.5422

          k = 0.4080 0.4080 0.1632 (   180 PWs)   bands (ev):

    10.1593  11.4895  12.5750  14.8592  15.1355  17.5406  21.5470  28.1695

          k = 0.0000 0.0000 0.1632 (   185 PWs)   bands (ev):

     5.6349  12.8611  12.8611  13.1212  14.4026  15.0312  34.3178  36.2955

          k = 0.3264 0.2448 0.2448 (   184 PWs)   bands (ev):

    10.0494  11.5545  11.6630  14.8571  15.0732  16.8629  25.6437  26.2442

          k = 0.4080 0.3264 0.2448 (   184 PWs)   bands (ev):

    10.7129  11.4317  11.8758  14.9471  15.1286  18.5785  22.4397  25.2062

          k = 0.0000-0.0816 0.2448 (   184 PWs)   bands (ev):

     6.7523  12.6265  12.7551  13.6996  14.0453  15.1569  31.4343  34.1420

          k = 0.4896 0.3264 0.3264 (   173 PWs)   bands (ev):

    11.0563  11.5718  11.5718  15.0655  15.0655  21.0434  21.0434  23.0538

          k =-0.0000-0.1632 0.3264 (   185 PWs)   bands (ev):

     8.3064  12.2727  12.4217  14.1326  14.5899  15.2843  27.2158  32.3779

          k = 0.0816-0.0816 0.3264 (   184 PWs)   bands (ev):

     8.0630  12.4221  12.5926  13.8110  14.3426  15.3500  29.4603  30.2820

          k = 0.0000-0.2448 0.4080 (   182 PWs)   bands (ev):

     9.5553  11.9953  12.4497  14.3924  15.4190  15.6741  23.4119  31.2090

          k = 0.0816-0.1632 0.4080 (   182 PWs)   bands (ev):

     9.5037  11.9627  12.4098  14.0607  15.0394  15.9322  25.5749  28.4449

          k =-0.8160-0.3264-0.3264 (   188 PWs)   bands (ev):

     9.8871  11.8919  12.7378  14.4360  15.7695  16.2503  21.5299  30.7926

          k =-0.7344-0.2448-0.3264 (   183 PWs)   bands (ev):

    10.2680  11.9622  12.2074  14.2779  15.4073  17.2726  22.2226  27.5640

          k =-0.6528-0.1632-0.3264 (   187 PWs)   bands (ev):

    10.6050  11.5200  12.2694  14.3223  15.1198  17.6650  24.0904  24.7108

          k =-0.6528-0.2448-0.2448 (   189 PWs)   bands (ev):

    11.0224  11.6207  11.8773  14.5585  15.1090  19.5264  21.6442  24.0458

          k = 0.3264 0.3264 0.3264 (   183 PWs)   bands (ev):

    11.1033  11.3842  11.3842  15.0917  15.0917  18.6581  24.5971  24.5971

          k = 0.4080 0.4080 0.3264 (   180 PWs)   bands (ev):

    11.2026  11.3363  11.6229  15.1143  15.1614  20.6095  22.0185  24.2394

          k = 0.0000 0.0000 0.3264 (   185 PWs)   bands (ev):

     7.7698  12.9961  12.9961  13.2016  13.7552  15.3955  31.6236  32.5428

          k = 0.0000-0.0816 0.4080 (   184 PWs)   bands (ev):

     9.1285  12.2881  12.9158  13.5236  14.4793  15.7185  27.9872  30.4857

          k = 0.0000-0.1632 0.4896 (   186 PWs)   bands (ev):

    10.2140  11.7529  12.7260  13.8958  15.3234  16.7563  23.9535  28.9479

          k = 0.0816-0.0816 0.4896 (   186 PWs)   bands (ev):

    10.1886  11.6657  13.0119  13.8495  14.9800  16.6875  26.3205  26.6213

          k =-0.8160-0.2448-0.2448 (   188 PWs)   bands (ev):

    10.5239  11.6792  12.6483  13.9398  15.6952  18.0914  21.6182  28.3510

          k =-0.7344-0.1632-0.2448 (   191 PWs)   bands (ev):

    10.8040  11.2941  12.7947  14.2276  15.3702  18.7288  22.7313  25.5172

          k =-0.6528-0.1632-0.1632 (   191 PWs)   bands (ev):

    11.0954  11.0954  12.5866  14.9572  14.9572  21.4161  21.4161  23.0587

          k = 0.0000 0.0000 0.4896 (   188 PWs)   bands (ev):

    10.0101  11.7704  13.6229  13.6229  14.5650  16.3976  28.1704  28.1704

          k = 0.0000-0.0816 0.5712 (   192 PWs)   bands (ev):

    10.5470  11.1672  13.7801  14.0467  15.2174  17.9974  24.7458  26.4572

          k =-0.8160-0.1632-0.1632 (   186 PWs)   bands (ev):

    10.7492  10.8953  13.7646  14.1662  15.6043  20.0905  21.9044  25.7858

          k =-0.7344-0.0816-0.1632 (   192 PWs)   bands (ev):

    10.6597  10.7770  13.8524  14.8099  15.3691  20.3179  23.4065  23.8059

          k = 0.0000 0.0000 0.6528 (   188 PWs)   bands (ev):

    10.4625  10.6735  14.7498  14.7498  15.2409  19.7428  24.5565  24.5565

          k =-0.8160-0.0816-0.0816 (   182 PWs)   bands (ev):

    10.4254  10.4441  14.9342  15.0586  15.5315  21.9788  22.4963  23.7826

          k =-0.8160-0.8160-0.8160 (   188 PWs)   bands (ev):

    10.2696  10.2696  15.5038  15.5038  15.5038  22.9426  22.9426  22.9426

     the Fermi energy is    12.9312 ev

!    total energy              =     -55.80105249 Ry
     estimated scf accuracy    <          3.6E-10 Ry
     smearing contrib. (-TS)   =      -0.00016854 Ry
     internal energy E=F+TS    =     -55.80088395 Ry

     The total energy is F=E-TS. E is the sum of the following terms:
     one-electron contribution =       6.96182726 Ry
     hartree contribution      =       6.68756078 Ry
     xc contribution           =     -26.43665064 Ry
     ewald contribution        =     -43.01362135 Ry

     total magnetization       =     2.31 Bohr mag/cell
     absolute magnetization    =     2.48 Bohr mag/cell

     convergence has been achieved in   8 iterations

     Forces acting on atoms (cartesian axes, Ry/au):

     atom    1 type  1   force =     0.00000000    0.00000000    0.00000000

     Total force =     0.000000     Total SCF correction =     0.000000


     Computing stress (Cartesian axis) and pressure

          total   stress  (Ry/bohr**3)                   (kbar)     P=      -40.36
  -0.00027434  -0.00000000  -0.00000000          -40.36       -0.00       -0.00
  -0.00000000  -0.00027434  -0.00000000           -0.00      -40.36       -0.00
  -0.00000000  -0.00000000  -0.00027434           -0.00       -0.00      -40.36

     Energy error            =      7.0E-04 Ry
     Gradient error          =      0.0E+00 Ry/Bohr
     Cell gradient error     =      4.0E+01 kbar

     number of scf cycles    =   3
     number of bfgs steps    =   2

     enthalpy           old  =     -55.8003528968 Ry
     enthalpy           new  =     -55.8010524889 Ry

     CASE: enthalpy          _new < enthalpy          _old

     new trust radius        =       0.0242203021 bohr
     new conv_thr            =       0.0000000010 Ry

     new unit-cell volume =     76.18881 a.u.^3 (    11.29002 Ang^3 )
     density =      8.21370 g/cm^3

CELL_PARAMETERS (angstrom)
  -1.413225714   1.413225714   1.413225714
   1.413225714  -1.413225714   1.413225714
   1.413225714   1.413225714  -1.413225714

ATOMIC_POSITIONS (angstrom)
Fe               0.0000000000        0.0000000000        0.0000000000


     Message from routine punch:
     Nothing written, as per user request (disk_io='none')
     NEW-OLD atomic charge density approx. for the potential
     New effective cutoffs (rho, wfc):  271.23   27.37

     Check: negative core charge=   -0.000003
     Generating pointlists ...

     total cpu time spent up to now is        6.6 secs

     Self-consistent Calculation

     iteration #  1     ecut=    30.00 Ry     beta= 0.50
     Davidson diagonalization with overlap
     ethr =  1.00E-06,  avg # of iterations =  4.9

     total cpu time spent up to now is        7.0 secs

     total energy              =     -55.80125316 Ry
     estimated scf accuracy    <       0.00019543 Ry

     total magnetization       =     2.25 Bohr mag/cell
     absolute magnetization    =     2.42 Bohr mag/cell

     iteration #  2     ecut=    30.00 Ry     beta= 0.50
     Davidson diagonalization with overlap
     ethr =  2.44E-06,  avg # of iterations =  1.0

     total cpu time spent up to now is        7.2 secs

     total energy              =     -55.80131482 Ry
     estimated scf accuracy    <       0.00010343 Ry

     total magnetization       =     2.23 Bohr mag/cell
     absolute magnetization    =     2.40 Bohr mag/cell

     iteration #  3     ecut=    30.00 Ry     beta= 0.50
     Davidson diagonalization with overlap
     ethr =  1.29E-06,  avg # of iterations =  1.5

     total cpu time spent up to now is        7.3 secs

     total energy              =     -55.80141703 Ry
     estimated scf accuracy    <       0.00001088 Ry

     total magnetization       =     2.19 Bohr mag/cell
     absolute magnetization    =     2.35 Bohr mag/cell

     iteration #  4     ecut=    30.00 Ry     beta= 0.50
     Davidson diagonalization with overlap
     ethr =  1.36E-07,  avg # of iterations =  1.9

     total cpu time spent up to now is        7.5 secs

     total energy              =     -55.80142429 Ry
     estimated scf accuracy    <       0.00000223 Ry

     total magnetization       =     2.19 Bohr mag/cell
     absolute magnetization    =     2.35 Bohr mag/cell

     iteration #  5     ecut=    30.00 Ry     beta= 0.50
     Davidson diagonalization with overlap
     ethr =  2.79E-08,  avg # of iterations =  1.8

     total cpu time spent up to now is        7.7 secs

     total energy              =     -55.80142570 Ry
     estimated scf accuracy    <       0.00000027 Ry

     total magnetization       =     2.18 Bohr mag/cell
     absolute magnetization    =     2.34 Bohr mag/cell

     iteration #  6     ecut=    30.00 Ry     beta= 0.50
     Davidson diagonalization with overlap
     ethr =  3.43E-09,  avg # of iterations =  3.3

     total cpu time spent up to now is        7.9 secs

     total energy              =     -55.80142637 Ry
     estimated scf accuracy    <       0.00000001 Ry

     total magnetization       =     2.18 Bohr mag/cell
     absolute magnetization    =     2.34 Bohr mag/cell

     iteration #  7     ecut=    30.00 Ry     beta= 0.50
     Davidson diagonalization with overlap
     ethr =  1.37E-10,  avg # of iterations =  4.7

     total cpu time spent up to now is        8.1 secs

     total energy              =     -55.80142643 Ry
     estimated scf accuracy    <          2.1E-09 Ry

     total magnetization       =     2.18 Bohr mag/cell
     absolute magnetization    =     2.34 Bohr mag/cell

     iteration #  8     ecut=    30.00 Ry     beta= 0.50
     Davidson diagonalization with overlap
     ethr =  2.66E-11,  avg # of iterations =  3.4

     Magnetic moment per site  (integrated on atomic sphere of radius R)
     atom   1 (R=0.413)  charge=  6.2048  magn=  2.2447

     total cpu time spent up to now is        8.4 secs

     End of self-consistent calculation

 ------ SPIN UP ------------


          k = 0.0000 0.0000 0.0000 (   177 PWs)   bands (ev):

     5.2710  11.2816  11.2816  11.2816  12.4793  12.4793  38.4964  38.4964

          k = 0.0827 0.0827 0.0000 (   189 PWs)   bands (ev):

     5.6866  11.1708  11.2681  11.5031  12.3795  12.4887  36.2556  37.8914

          k = 0.1655 0.1655 0.0000 (   186 PWs)   bands (ev):

     6.8290  10.8886  11.1717  12.1127  12.2881  12.5218  31.9428  35.9881

          k = 0.2482 0.2482 0.0000 (   182 PWs)   bands (ev):

     8.1676  10.5543  11.3758  12.4083  12.5800  12.9383  27.3142  33.9503

          k = 0.3309 0.3309 0.0000 (   184 PWs)   bands (ev):

     8.6661  10.2943  12.4216  12.6418  13.0574  13.6817  23.1951  32.5454

          k =-0.4136-0.4136-0.0000 (   186 PWs)   bands (ev):

     8.6788  10.1973  12.5566  12.6691  13.9883  14.3450  21.1002  32.0503

          k = 0.1655 0.0827 0.0827 (   184 PWs)   bands (ev):

     6.4733  11.0369  11.1005  11.9682  12.2455  12.5445  33.8831  35.1102

          k = 0.2482 0.1655 0.0827 (   182 PWs)   bands (ev):

     7.8010  10.7275  10.9520  12.2369  12.6262  12.8133  29.7668  32.7899

          k = 0.3309 0.2482 0.0827 (   183 PWs)   bands (ev):

     8.7763  10.4276  11.4156  12.4322  12.7660  13.9163  25.3118  31.2458

          k = 0.4136 0.3309 0.0827 (   184 PWs)   bands (ev):

     8.8871  10.2594  12.1238  12.5361  13.2085  15.3489  21.7957  30.3903

          k = 0.3309 0.1655 0.1655 (   182 PWs)   bands (ev):

     8.9691  10.4632  10.8121  12.2838  12.7703  14.0767  27.6865  28.5725

          k = 0.4136 0.2482 0.1655 (   182 PWs)   bands (ev):

     9.4207  10.3087  11.1229  12.4673  12.9270  15.9625  23.8068  26.9996

          k = 0.4964 0.3309 0.1655 (   189 PWs)   bands (ev):

     9.3931  10.2950  11.3331  12.5515  13.0656  17.6371  21.3045  26.5503

          k = 0.4964 0.2482 0.2482 (   183 PWs)   bands (ev):

     9.8415  10.3071  10.7805  12.6565  12.9051  18.7284  22.2215  23.7876

          k = 0.1655 0.1655 0.1655 (   186 PWs)   bands (ev):

     7.5411  10.7490  10.7490  12.4410  12.4410  12.8237  31.9083  31.9083

          k = 0.2482 0.2482 0.1655 (   179 PWs)   bands (ev):

     8.8538  10.4302  10.6462  12.4701  12.5794  14.0192  27.7502  30.2904

          k = 0.3309 0.3309 0.1655 (   182 PWs)   bands (ev):

     9.2545  10.2183  11.4743  12.5714  12.6565  15.6386  23.5946  29.2264

          k = 0.4136 0.4136 0.1655 (   180 PWs)   bands (ev):

     9.2110  10.1447  12.0492  12.6180  12.6814  17.0201  21.2502  28.8541

          k = 0.0000 0.0000 0.1655 (   185 PWs)   bands (ev):

     6.0898  11.2915  11.2915  11.5040  12.1163  12.6216  35.4045  37.4059

          k = 0.3309 0.2482 0.2482 (   184 PWs)   bands (ev):

     9.7403  10.2689  10.5833  12.5570  12.6751  15.7713  25.9500  26.7461

          k = 0.4136 0.3309 0.2482 (   184 PWs)   bands (ev):

     9.7501  10.2028  11.1080  12.6437  12.7280  18.0788  22.4423  25.6386

          k = 0.0000-0.0827 0.2482 (   184 PWs)   bands (ev):

     7.1897  11.0931  11.2048  11.9078  12.0577  12.7620  32.1546  35.1553

          k = 0.4964 0.3309 0.3309 (   173 PWs)   bands (ev):

     9.8994  10.5974  10.5974  12.7156  12.7156  20.9422  20.9422  23.3019

          k = 0.0000-0.1655 0.3309 (   185 PWs)   bands (ev):

     8.4613  10.7871  11.0437  12.1836  12.8906  13.0489  27.6010  33.3539

          k = 0.0827-0.0827 0.3309 (   184 PWs)   bands (ev):

     8.3539  10.8123  11.1457  11.8620  12.6429  13.1448  29.9709  30.9957

          k = 0.0000-0.2482 0.4136 (   182 PWs)   bands (ev):

     8.9134  10.5453  11.4067  12.3922  13.6480  14.2947  23.4088  32.1738

          k = 0.0827-0.1655 0.4136 (   182 PWs)   bands (ev):

     9.2111  10.4993  11.0563  12.1784  13.1155  14.4757  25.8355  29.0326

          k =-0.8273-0.3309-0.3309 (   188 PWs)   bands (ev):

     8.9053  10.4547  11.6528  12.3755  13.9619  15.6625  21.1612  31.7576

          k =-0.7446-0.2482-0.3309 (   183 PWs)   bands (ev):

     9.2768  10.6134  10.9739  12.3299  13.5787  16.5994  22.0844  28.1417

          k =-0.6618-0.1655-0.3309 (   187 PWs)   bands (ev):

     9.8022  10.0885  10.9214  12.4600  13.2172  16.9016  24.1743  25.1257

          k =-0.6618-0.2482-0.2482 (   189 PWs)   bands (ev):

     9.8129  10.3990  10.5210  12.6788  13.2503  19.2395  21.4948  24.3719

          k = 0.3309 0.3309 0.3309 (   183 PWs)   bands (ev):

    10.2046  10.2046  10.5733  12.6756  12.6756  18.0907  24.8651  24.8651

          k = 0.4136 0.4136 0.3309 (   180 PWs)   bands (ev):

    10.1971  10.1986  10.7476  12.6969  12.7014  20.4947  22.0193  24.4963

          k = 0.0000 0.0000 0.3309 (   185 PWs)   bands (ev):

     8.1246  11.1604  11.4840  11.4840  12.0959  13.1268  32.2917  33.2686

          k = 0.0000-0.0827 0.4136 (   184 PWs)   bands (ev):

     9.0930  10.5364  11.4184  11.8902  12.7862  13.9220  28.4292  31.1530

          k = 0.0000-0.1655 0.4964 (   186 PWs)   bands (ev):

     9.3831  10.3361  11.2495  12.1400  13.5614  15.8656  24.0849  29.6235

          k = 0.0827-0.0827 0.4964 (   186 PWs)   bands (ev):

     9.5573  10.0018  11.5170  12.2244  13.2176  15.6930  26.6140  27.1663

          k =-0.8273-0.2482-0.2482 (   188 PWs)   bands (ev):

     9.3109  10.4106  11.1808  12.1665  13.8931  17.7935  21.4120  29.0458

          k =-0.7446-0.1655-0.2482 (   191 PWs)   bands (ev):

     9.5287   9.9029  11.3493  12.5491  13.5984  18.3931  22.8078  25.9816

          k =-0.6618-0.1655-0.1655 (   191 PWs)   bands (ev):

     9.6661   9.6661  11.2390  13.2266  13.2266  21.3977  21.3977  23.3882

          k = 0.0000 0.0000 0.4964 (   188 PWs)   bands (ev):

     9.4259   9.9896  12.1161  12.1161  12.8483  15.3021  28.7992  28.7992

          k = 0.0000-0.0827 0.5791 (   192 PWs)   bands (ev):

     9.3913   9.5490  12.2423  12.4893  13.4627  17.6387  25.1317  27.1111

          k =-0.8273-0.1655-0.1655 (   186 PWs)   bands (ev):

     9.2549   9.4784  12.2216  12.6083  13.8089  20.1461  22.0206  26.4710

          k =-0.7446-0.0827-0.1655 (   192 PWs)   bands (ev):

     9.2164   9.2400  12.3440  13.1533  13.6110  20.4132  23.7604  24.3460

          k = 0.0000 0.0000 0.6618 (   188 PWs)   bands (ev):

     9.0591   9.0664  13.1192  13.1192  13.4731  19.9110  25.2684  25.2684

          k =-0.8273-0.0827-0.0827 (   182 PWs)   bands (ev):

     8.8917   8.9109  13.2503  13.3767  13.7412  22.4784  23.0661  24.5538

          k =-0.8273-0.8273-0.8273 (   188 PWs)   bands (ev):

     8.7208   8.7208  13.7155  13.7155  13.7155  23.7991  23.7991  23.7991

 ------ SPIN DOWN ----------


          k = 0.0000 0.0000 0.0000 (   177 PWs)   bands (ev):

     5.3237  13.3939  13.3939  13.3939  15.5014  15.5014  38.1775  38.1775

          k = 0.0827 0.0827 0.0000 (   189 PWs)   bands (ev):

     5.7421  13.2568  13.3616  13.6376  15.3598  15.5122  36.2855  37.7013

          k = 0.1655 0.1655 0.0000 (   186 PWs)   bands (ev):

     6.9200  12.9109  13.1900  14.3136  15.1614  15.5548  32.3934  35.9785

          k = 0.2482 0.2482 0.0000 (   182 PWs)   bands (ev):

     8.5371  12.5061  13.0073  15.1823  15.2427  15.6368  28.0747  33.9543

          k = 0.3309 0.3309 0.0000 (   184 PWs)   bands (ev):

     9.7502  12.1945  13.5480  15.3092  15.7288  16.0972  24.3013  32.5083

          k =-0.4136-0.4136-0.0000 (   186 PWs)   bands (ev):

    10.0416  12.0790  14.3304  15.3506  15.7707  16.4561  22.5353  31.9912

          k = 0.1655 0.0827 0.0827 (   184 PWs)   bands (ev):

     6.5439  13.0795  13.1602  14.1379  15.1524  15.5728  34.1448  35.3358

          k = 0.2482 0.1655 0.0827 (   182 PWs)   bands (ev):

     7.9805  12.7044  12.8868  14.9960  15.0532  15.6810  30.3585  33.1179

          k = 0.3309 0.2482 0.0827 (   183 PWs)   bands (ev):

     9.5156  12.3357  12.8675  15.1634  15.7291  16.1091  26.1964  31.5705

          k = 0.4136 0.3309 0.0827 (   184 PWs)   bands (ev):

    10.2150  12.1288  13.5124  15.3008  15.8696  17.0310  23.0660  30.6919

          k = 0.3309 0.1655 0.1655 (   182 PWs)   bands (ev):

     9.4556  12.3817  12.5785  15.0286  15.7086  16.2502  28.4026  29.1414

          k = 0.4136 0.2482 0.1655 (   182 PWs)   bands (ev):

    10.6181  12.1300  12.6141  15.2004  15.7834  17.7124  24.7581  27.6159

          k = 0.4964 0.3309 0.1655 (   189 PWs)   bands (ev):

    10.8720  12.1049  12.8284  15.3124  15.8125  18.9176  22.5747  27.1560

          k = 0.4964 0.2482 0.2482 (   183 PWs)   bands (ev):

    11.4058  11.9985  12.3620  15.3961  15.6808  20.0264  23.2424  24.5909

          k = 0.1655 0.1655 0.1655 (   186 PWs)   bands (ev):

     7.6584  12.7294  12.7294  15.0187  15.4019  15.4019  32.3007  32.3007

          k = 0.2482 0.2482 0.1655 (   179 PWs)   bands (ev):

     9.2191  12.3191  12.4308  15.3689  15.6087  16.1469  28.4244  30.7142

          k = 0.3309 0.3309 0.1655 (   182 PWs)   bands (ev):

    10.3926  12.0413  12.6893  15.4458  15.7409  17.4220  24.5711  29.6365

          k = 0.4136 0.4136 0.1655 (   180 PWs)   bands (ev):

    10.6207  11.9443  13.1907  15.4914  15.7876  18.3252  22.5615  29.2526

          k = 0.0000 0.0000 0.1655 (   185 PWs)   bands (ev):

     6.1508  13.3719  13.3719  13.6425  15.0132  15.6775  35.4458  37.5107

          k = 0.3309 0.2482 0.2482 (   184 PWs)   bands (ev):

    10.6111  12.0308  12.1451  15.4894  15.7205  17.6098  26.7018  27.3789

          k = 0.4136 0.3309 0.2482 (   184 PWs)   bands (ev):

    11.1977  11.9013  12.4271  15.5845  15.7790  19.4177  23.4568  26.2987

          k = 0.0000-0.0827 0.2482 (   184 PWs)   bands (ev):

     7.2977  13.1263  13.2685  14.2510  14.6345  15.8124  32.5992  35.3479

          k = 0.4964 0.3309 0.3309 (   173 PWs)   bands (ev):

[...]

     total energy              =     -55.80182257 Ry
     estimated scf accuracy    <       0.00032330 Ry

     total magnetization       =     2.18 Bohr mag/cell
     absolute magnetization    =     2.32 Bohr mag/cell

     iteration #  5     ecut=    30.00 Ry     beta= 0.50
     Davidson diagonalization with overlap
     ethr =  4.04E-06,  avg # of iterations =  2.0

     total cpu time spent up to now is       13.9 secs

     total energy              =     -55.80197802 Ry
     estimated scf accuracy    <       0.00007349 Ry

     total magnetization       =     2.19 Bohr mag/cell
     absolute magnetization    =     2.35 Bohr mag/cell

     iteration #  6     ecut=    30.00 Ry     beta= 0.50
     Davidson diagonalization with overlap
     ethr =  9.19E-07,  avg # of iterations =  1.7

     total cpu time spent up to now is       14.1 secs

     total energy              =     -55.80199857 Ry
     estimated scf accuracy    <       0.00000292 Ry

     total magnetization       =     2.19 Bohr mag/cell
     absolute magnetization    =     2.35 Bohr mag/cell

     iteration #  7     ecut=    30.00 Ry     beta= 0.50
     Davidson diagonalization with overlap
     ethr =  3.65E-08,  avg # of iterations =  4.8

     total cpu time spent up to now is       14.5 secs

     total energy              =     -55.80200210 Ry
     estimated scf accuracy    <       0.00000272 Ry

     total magnetization       =     2.20 Bohr mag/cell
     absolute magnetization    =     2.36 Bohr mag/cell

     iteration #  8     ecut=    30.00 Ry     beta= 0.50
     Davidson diagonalization with overlap
     ethr =  3.41E-08,  avg # of iterations =  1.8

     total cpu time spent up to now is       14.7 secs

     total energy              =     -55.80200406 Ry
     estimated scf accuracy    <       0.00000048 Ry

     total magnetization       =     2.20 Bohr mag/cell
     absolute magnetization    =     2.36 Bohr mag/cell

     iteration #  9     ecut=    30.00 Ry     beta= 0.50
     Davidson diagonalization with overlap
     ethr =  5.95E-09,  avg # of iterations =  2.2

     total cpu time spent up to now is       14.9 secs

     total energy              =     -55.80200422 Ry
     estimated scf accuracy    <       0.00000001 Ry

     total magnetization       =     2.20 Bohr mag/cell
     absolute magnetization    =     2.36 Bohr mag/cell

     iteration # 10     ecut=    30.00 Ry     beta= 0.50
     Davidson diagonalization with overlap
     ethr =  1.63E-10,  avg # of iterations =  5.7

     total cpu time spent up to now is       15.3 secs

     total energy              =     -55.80200427 Ry
     estimated scf accuracy    <          1.3E-09 Ry

     total magnetization       =     2.20 Bohr mag/cell
     absolute magnetization    =     2.36 Bohr mag/cell

     iteration # 11     ecut=    30.00 Ry     beta= 0.50
     Davidson diagonalization with overlap
     ethr =  1.69E-11,  avg # of iterations =  3.9

     Magnetic moment per site  (integrated on atomic sphere of radius R)
     atom   1 (R=0.413)  charge=  6.1978  magn=  2.2612

     total cpu time spent up to now is       15.6 secs

     End of self-consistent calculation

 ------ SPIN UP ------------


          k = 0.0000 0.0000 0.0000 (   201 PWs)   bands (ev):

     5.1741  11.1502  11.1502  11.1502  12.3332  12.3332  38.2756  38.2756

          k = 0.0825 0.0825 0.0000 (   207 PWs)   bands (ev):

     5.5870  11.0409  11.1367  11.3684  12.2350  12.3425  36.0242  37.6664

          k = 0.1650 0.1650 0.0000 (   213 PWs)   bands (ev):

     6.7231  10.7619  11.0421  11.9707  12.1445  12.3748  31.7048  35.7592

          k = 0.2475 0.2475 0.0000 (   211 PWs)   bands (ev):

     8.0588  10.4318  11.2444  12.2627  12.4320  12.7863  27.0840  33.7288

          k = 0.3300 0.3300 0.0000 (   206 PWs)   bands (ev):

     8.5616  10.1752  12.2768  12.4928  12.9142  13.5206  22.9743  32.3320

          k =-0.4125-0.4125-0.0000 (   214 PWs)   bands (ev):

     8.5765  10.0791  12.4087  12.5190  13.8230  14.2020  20.8812  31.8400

          k = 0.1650 0.0825 0.0825 (   210 PWs)   bands (ev):

     6.3692  10.9086  10.9713  11.8281  12.1026  12.3973  33.6502  34.8660

          k = 0.2475 0.1650 0.0825 (   211 PWs)   bands (ev):

     7.6910  10.6031  10.8251  12.0938  12.4775  12.6632  29.5328  32.5512

          k = 0.3300 0.2475 0.0825 (   209 PWs)   bands (ev):

     8.6675  10.3070  11.2839  12.2865  12.6157  13.7555  25.0871  31.0143

          k = 0.4125 0.3300 0.0825 (   212 PWs)   bands (ev):

     8.7821  10.1407  11.9842  12.3886  13.0552  15.1845  21.5776  30.1634

          k = 0.3300 0.1650 0.1650 (   207 PWs)   bands (ev):

     8.8560  10.3430  10.6866  12.1400  12.6196  13.9141  27.4630  28.3330

          k = 0.4125 0.2475 0.1650 (   214 PWs)   bands (ev):

     9.3094  10.1897  10.9946  12.3209  12.7745  15.7881  23.5889  26.7709

          k = 0.4950 0.3300 0.1650 (   213 PWs)   bands (ev):

     9.2837  10.1760  11.2032  12.4040  12.9122  17.4602  21.0900  26.3246

          k = 0.4950 0.2475 0.2475 (   215 PWs)   bands (ev):

     9.7270  10.1884  10.6563  12.5078  12.7532  18.5409  22.0185  23.5604

          k = 0.1650 0.1650 0.1650 (   210 PWs)   bands (ev):

     7.4314  10.6245  10.6245  12.2951  12.2951  12.6735  31.6769  31.6769

          k = 0.2475 0.2475 0.1650 (   211 PWs)   bands (ev):

     8.7398  10.3095  10.5228  12.3235  12.4313  13.8566  27.5224  30.0637

          k = 0.3300 0.3300 0.1650 (   209 PWs)   bands (ev):

     9.1446  10.1002  11.3423  12.4234  12.5071  15.4661  23.3758  29.0052

          k = 0.4125 0.4125 0.1650 (   210 PWs)   bands (ev):

     9.1030  10.0273  11.9121  12.4691  12.5316  16.8469  21.0337  28.6348

          k = 0.0000 0.0000 0.1650 (   213 PWs)   bands (ev):

     5.9878  11.1596  11.1596  11.3692  11.9754  12.4733  35.1819  37.1574

          k = 0.3300 0.2475 0.2475 (   214 PWs)   bands (ev):

     9.6244  10.1504  10.4598  12.4091  12.5252  15.5958  25.7336  26.5149

          k = 0.4125 0.3300 0.2475 (   212 PWs)   bands (ev):

     9.6367  10.0847  10.9800  12.4946  12.5777  17.8944  22.2302  25.4152

          k = 0.0000-0.0825 0.2475 (   210 PWs)   bands (ev):

     7.0820  10.9639  11.0751  11.7695  11.9165  12.6117  31.9197  34.9147

          k = 0.4950 0.3300 0.3300 (   213 PWs)   bands (ev):

     9.7846  10.4748  10.4748  12.5654  12.5654  20.7462  20.7462  23.0750

          k = 0.0000-0.1650 0.3300 (   203 PWs)   bands (ev):

     8.3510  10.6621  10.9168  12.0416  12.7396  12.8957  27.3701  33.1263

          k = 0.0825-0.0825 0.3300 (   213 PWs)   bands (ev):

     8.2419  10.6883  11.0160  11.7239  12.4944  12.9901  29.7405  30.7467

          k = 0.0000-0.2475 0.4125 (   216 PWs)   bands (ev):

     8.8068  10.4230  11.2756  12.2466  13.4871  14.1361  23.1880  31.9532

          k = 0.0825-0.1650 0.4125 (   214 PWs)   bands (ev):

     9.0995  10.3789  10.9281  12.0361  12.9610  14.3109  25.6100  28.7962

          k =-0.8251-0.3300-0.3300 (   210 PWs)   bands (ev):

     8.8013  10.3337  11.5191  12.2302  13.7972  15.5033  20.9433  31.5400

          k =-0.7426-0.2475-0.3300 (   214 PWs)   bands (ev):

     9.1688  10.4907  10.8479  12.1854  13.4191  16.4267  21.8681  27.9096

          k =-0.6600-0.1650-0.3300 (   218 PWs)   bands (ev):

     9.6876   9.9730  10.7950  12.3143  13.0618  16.7224  23.9613  24.8963

          k =-0.6600-0.2475-0.2475 (   214 PWs)   bands (ev):

     9.7002  10.2801  10.3989  12.5303  13.0947  19.0527  21.2861  24.1488

          k = 0.3300 0.3300 0.3300 (   222 PWs)   bands (ev):

    10.0860  10.0860  10.4502  12.5256  12.5256  17.9034  24.6533  24.6533

          k = 0.4125 0.4125 0.3300 (   216 PWs)   bands (ev):

    10.0786  10.0800  10.6232  12.5468  12.5512  20.3013  21.8107  24.2863

          k = 0.0000 0.0000 0.3300 (   213 PWs)   bands (ev):

     8.0130  11.0327  11.3504  11.3504  11.9546  12.9717  32.0699  33.0082

          k = 0.0000-0.0825 0.4125 (   213 PWs)   bands (ev):

     8.9801  10.4165  11.2858  11.7517  12.6364  13.7603  28.1951  30.9008

          k = 0.0000-0.1650 0.4950 (   215 PWs)   bands (ev):

     9.2736  10.2180  11.1191  11.9982  13.4017  15.6943  23.8642  29.3799

          k = 0.0825-0.0825 0.4950 (   217 PWs)   bands (ev):

     9.4448   9.8882  11.3832  12.0821  13.0621  15.5208  26.3893  26.9315

          k =-0.8251-0.2475-0.2475 (   216 PWs)   bands (ev):

     9.2039  10.2919  11.0510  12.0243  13.7291  17.6180  21.1967  28.8061

          k =-0.7426-0.1650-0.2475 (   217 PWs)   bands (ev):

     9.4198   9.7900  11.2175  12.4026  13.4383  18.2086  22.5942  25.7559

          k =-0.6600-0.1650-0.1650 (   215 PWs)   bands (ev):

     9.5562   9.5562  11.1084  13.0717  13.0717  21.1992  21.1992  23.1653

          k = 0.0000 0.0000 0.4950 (   213 PWs)   bands (ev):

     9.3146   9.8770  11.9751  11.9751  12.6978  15.1319  28.5601  28.5601

          k = 0.0000-0.0825 0.5775 (   218 PWs)   bands (ev):

     9.2839   9.4408  12.0999  12.3435  13.3043  17.4574  24.9111  26.8830

          k =-0.8251-0.1650-0.1650 (   216 PWs)   bands (ev):

     9.1499   9.3709  12.0793  12.4612  13.6459  19.9571  21.8096  26.2476

          k =-0.7426-0.0825-0.1650 (   218 PWs)   bands (ev):

     9.1120   9.1352  12.2001  12.9994  13.4508  20.2195  23.5512  24.1288

          k = 0.0000 0.0000 0.6600 (   220 PWs)   bands (ev):

     8.9563   8.9638  12.9657  12.9657  13.3144  19.7206  25.0537  25.0537

          k =-0.8251-0.0825-0.0825 (   228 PWs)   bands (ev):

     8.7907   8.8098  13.0947  13.2196  13.5789  22.2796  22.8603  24.3451

          k =-0.8251-0.8251-0.8251 (   236 PWs)   bands (ev):

     8.6217   8.6217  13.5535  13.5535  13.5535  23.5970  23.5970  23.5970

 ------ SPIN DOWN ----------


          k = 0.0000 0.0000 0.0000 (   201 PWs)   bands (ev):

     5.2265  13.2818  13.2818  13.2818  15.3675  15.3675  37.9535  37.9535

          k = 0.0825 0.0825 0.0000 (   207 PWs)   bands (ev):

     5.6423  13.1463  13.2495  13.5223  15.2277  15.3782  36.0541  37.4743

          k = 0.1650 0.1650 0.0000 (   213 PWs)   bands (ev):

     6.8138  12.8032  13.0784  14.1912  15.0313  15.4200  32.1572  35.7484

          k = 0.2475 0.2475 0.0000 (   211 PWs)   bands (ev):

     8.4269  12.4023  12.8924  15.0515  15.1109  15.5009  27.8468  33.7313

          k = 0.3300 0.3300 0.0000 (   206 PWs)   bands (ev):

     9.6503  12.0939  13.4151  15.1769  15.5917  15.9569  24.0854  32.2932

          k =-0.4125-0.4125-0.0000 (   214 PWs)   bands (ev):

     9.9492  11.9792  14.1856  15.2174  15.6321  16.3116  22.3256  31.7791

          k = 0.1650 0.0825 0.0825 (   210 PWs)   bands (ev):

     6.4395  12.9702  13.0496  14.0172  15.0224  15.4381  33.9121  35.0944

          k = 0.2475 0.1650 0.0825 (   211 PWs)   bands (ev):

     7.8698  12.5984  12.7772  14.8665  14.9239  15.5444  30.1263  32.8817

          k = 0.3300 0.2475 0.0825 (   209 PWs)   bands (ev):

     9.4072  12.2333  12.7504  15.0329  15.5920  15.9668  25.9747  31.3419

          k = 0.4125 0.3300 0.0825 (   212 PWs)   bands (ev):

    10.1188  12.0283  13.3812  15.1682  15.7301  16.8782  22.8550  30.4681

          k = 0.3300 0.1650 0.1650 (   207 PWs)   bands (ev):

     9.3422  12.2771  12.4717  14.8996  15.5718  16.1055  28.1804  28.9056

          k = 0.4125 0.2475 0.1650 (   214 PWs)   bands (ev):

    10.5126  12.0264  12.4998  15.0694  15.6452  17.5515  24.5437  27.3904

          k = 0.4950 0.3300 0.1650 (   213 PWs)   bands (ev):

    10.7741  12.0028  12.7078  15.1799  15.6743  18.7471  22.3676  26.9333

          k = 0.4950 0.2475 0.2475 (   215 PWs)   bands (ev):

    11.3046  11.8921  12.2503  15.2629  15.5441  19.8460  23.0429  24.3689

          k = 0.1650 0.1650 0.1650 (   210 PWs)   bands (ev):

     7.5484  12.6230  12.6230  14.8884  15.2690  15.2690  32.0697  32.0697

          k = 0.2475 0.2475 0.1650 (   211 PWs)   bands (ev):

     9.1048  12.2162  12.3245  15.2360  15.4731  16.0038  28.1987  30.4888

          k = 0.3300 0.3300 0.1650 (   209 PWs)   bands (ev):

    10.2881  11.9410  12.5705  15.3119  15.6036  17.2649  24.3565  29.4170

          k = 0.4125 0.4125 0.1650 (   210 PWs)   bands (ev):

    10.5236  11.8444  13.0643  15.3567  15.6494  18.1605  22.3534  29.0353

          k = 0.0000 0.0000 0.1650 (   213 PWs)   bands (ev):

     6.0485  13.2592  13.2592  13.5271  14.8849  15.5413  35.2202  37.2669

          k = 0.3300 0.2475 0.2475 (   214 PWs)   bands (ev):

    10.4973  11.9278  12.0403  15.3551  15.5830  17.4504  26.4876  27.1510

          k = 0.4125 0.3300 0.2475 (   212 PWs)   bands (ev):

    11.0958  11.7994  12.3116  15.4490  15.6411  19.2429  23.2496  26.0786

          k = 0.0000-0.0825 0.2475 (   210 PWs)   bands (ev):

     7.1894  13.0160  13.1565  14.1296  14.5103  15.6742  32.3651  35.1074

          k = 0.4950 0.3300 0.3300 (   213 PWs)   bands (ev):

    11.4154  11.9797  11.9797  15.5734  15.5734  21.7829  21.7829  23.9291

          k = 0.0000-0.1650 0.3300 (   203 PWs)   bands (ev):

     8.7546  12.6500  12.8377  14.5967  15.0560  15.8125  28.1210  33.3025

          k = 0.0825-0.0825 0.3300 (   213 PWs)   bands (ev):

     8.5171  12.8179  12.9865  14.2613  14.8001  15.8818  30.3703  31.2581

          k = 0.0000-0.2475 0.4125 (   216 PWs)   bands (ev):

     9.9523  12.3625  12.9213  14.8678  15.9175  16.2346  24.2578  32.1068

          k = 0.0825-0.1650 0.4125 (   214 PWs)   bands (ev):

     9.9427  12.3584  12.8082  14.5188  15.5307  16.4997  26.4547  29.3737

          k =-0.8251-0.3300-0.3300 (   210 PWs)   bands (ev):

    10.2450  12.2557  13.2397  14.9146  16.2822  16.8496  22.3398  31.6807

          k =-0.7426-0.2475-0.3300 (   214 PWs)   bands (ev):

    10.6464  12.3703  12.6276  14.7473  15.9156  17.9066  23.0432  28.4757

          k =-0.6600-0.1650-0.3300 (   218 PWs)   bands (ev):

    11.0206  11.9059  12.6708  14.7887  15.6204  18.3137  24.9189  25.6027

          k =-0.6600-0.2475-0.2475 (   214 PWs)   bands (ev):

    11.4056  12.0430  12.2590  15.0355  15.6063  20.2371  22.4385  24.9119

          k = 0.3300 0.3300 0.3300 (   222 PWs)   bands (ev):

    11.5406  11.7546  11.7546  15.6022  15.6022  19.3262  25.4165  25.4165

          k = 0.4125 0.4125 0.3300 (   216 PWs)   bands (ev):

    11.5874  11.7067  12.0361  15.6262  15.6765  21.3337  22.8108  25.0499

          k = 0.0000 0.0000 0.3300 (   213 PWs)   bands (ev):

     8.2236  13.4041  13.4041  13.6349  14.1855  15.9298  32.5171  33.5535

          k = 0.0000-0.0825 0.4125 (   213 PWs)   bands (ev):

     9.5836  12.6893  13.3210  13.9584  14.9400  16.2823  28.9065  31.4688

          k = 0.0000-0.1650 0.4950 (   215 PWs)   bands (ev):

    10.6246  12.1606  13.1242  14.3488  15.8180  17.3841  24.8075  29.9019

          k = 0.0825-0.0825 0.4950 (   217 PWs)   bands (ev):

    10.6201  12.0472  13.4261  14.2951  15.4641  17.3116  27.2018  27.5386

          k =-0.8251-0.2475-0.2475 (   216 PWs)   bands (ev):

    10.8926  12.1100  13.0434  14.3976  16.2045  18.7689  22.4283  29.2919

          k =-0.7426-0.1650-0.2475 (   217 PWs)   bands (ev):

    11.1914  11.6855  13.2031  14.6903  15.8712  19.4299  23.5566  26.3996

          k =-0.6600-0.1650-0.1650 (   215 PWs)   bands (ev):

    11.4772  11.4772  12.9938  15.4449  15.4449  22.1872  22.1872  23.9177

          k = 0.0000 0.0000 0.4950 (   213 PWs)   bands (ev):

    10.4441  12.1521  14.0593  14.0593  15.0274  17.0149  29.1056  29.1056

          k = 0.0000-0.0825 0.5775 (   218 PWs)   bands (ev):

    10.9411  11.5320  14.2210  14.5028  15.7073  18.6868  25.6093  27.3525

          k =-0.8251-0.1650-0.1650 (   216 PWs)   bands (ev):

    11.1083  11.2730  14.2041  14.6310  16.1098  20.8317  22.7163  26.6645

          k =-0.7426-0.0825-0.1650 (   218 PWs)   bands (ev):

    11.0258  11.1313  14.3005  15.2906  15.8676  21.0729  24.2286  24.6566

          k = 0.0000 0.0000 0.6600 (   220 PWs)   bands (ev):

    10.8218  11.0178  15.2280  15.2280  15.7307  20.4888  25.4047  25.4047

          k =-0.8251-0.0825-0.0825 (   228 PWs)   bands (ev):

    10.7686  10.7831  15.4163  15.5476  16.0336  22.7672  23.3080  24.6114

          k =-0.8251-0.8251-0.8251 (   236 PWs)   bands (ev):

    10.6006  10.6006  16.0046  16.0046  16.0046  23.7508  23.7508  23.7508

     the Fermi energy is    13.4938 ev

!    total energy              =     -55.80200427 Ry
     estimated scf accuracy    <          3.5E-10 Ry
     smearing contrib. (-TS)   =      -0.00003111 Ry
     internal energy E=F+TS    =     -55.80197316 Ry

     The total energy is F=E-TS. E is the sum of the following terms:
     one-electron contribution =       7.63159340 Ry
     hartree contribution      =       6.49770046 Ry
     xc contribution           =     -26.44203151 Ry
     ewald contribution        =     -43.48923551 Ry

     total magnetization       =     2.20 Bohr mag/cell
     absolute magnetization    =     2.36 Bohr mag/cell

     convergence has been achieved in  11 iterations

     Forces acting on atoms (cartesian axes, Ry/au):

     atom    1 type  1   force =     0.00000000    0.00000000    0.00000000

     Total force =     0.000000     Total SCF correction =     0.000000


     Computing stress (Cartesian axis) and pressure

          total   stress  (Ry/bohr**3)                   (kbar)     P=       -0.08
  -0.00000053  -0.00000000  -0.00000000           -0.08       -0.00       -0.00
  -0.00000000  -0.00000053  -0.00000000           -0.00       -0.08       -0.00
  -0.00000000  -0.00000000  -0.00000053           -0.00       -0.00       -0.08

     Message from routine punch:
     Nothing written, as per user request (disk_io='none')

     init_run     :      0.53s CPU      0.56s WALL (       2 calls)
     electrons    :     11.80s CPU     13.68s WALL (       7 calls)
     update_pot   :      0.05s CPU      0.05s WALL (       5 calls)
     forces       :      0.19s CPU      0.20s WALL (       7 calls)
     stress       :      1.09s CPU      1.13s WALL (       7 calls)

     Called by init_run:
     wfcinit      :      0.10s CPU      0.10s WALL (       2 calls)
     potinit      :      0.13s CPU      0.14s WALL (       2 calls)
     hinit0       :      0.27s CPU      0.28s WALL (       2 calls)

     Called by electrons:
     c_bands      :      8.77s CPU     10.28s WALL (      59 calls)
     sum_band     :      2.09s CPU      2.34s WALL (      59 calls)
     v_of_rho     :      0.42s CPU      0.45s WALL (      64 calls)
     newd         :      0.56s CPU      0.59s WALL (      64 calls)
     mix_rho      :      0.03s CPU      0.03s WALL (      59 calls)

     Called by c_bands:
     init_us_2    :      0.27s CPU      0.33s WALL (   12596 calls)
     cegterg      :      8.17s CPU      9.57s WALL (    5546 calls)

     Called by *egterg:
     cdiaghg      :      1.15s CPU      1.36s WALL (   20436 calls)
     h_psi        :      5.84s CPU      6.80s WALL (   21282 calls)
     s_psi        :      0.10s CPU      0.12s WALL (   21282 calls)
     g_psi        :      0.04s CPU      0.05s WALL (   15548 calls)

     Called by h_psi:
     h_psi:calbec :      0.35s CPU      0.40s WALL (   21282 calls)
     vloc_psi     :      5.25s CPU      6.12s WALL (   21282 calls)
     add_vuspsi   :      0.12s CPU      0.14s WALL (   21282 calls)

     General routines
     calbec       :      0.54s CPU      0.63s WALL (   38014 calls)
     fft          :      0.22s CPU      0.23s WALL (    1875 calls)
     ffts         :      0.11s CPU      0.12s WALL (     246 calls)
     fftw         :      5.12s CPU      5.98s WALL (  287722 calls)
     interpolate  :      0.12s CPU      0.13s WALL (     128 calls)

     Parallel routines

     PWSCF        :     13.81s CPU     15.79s WALL


   This run was terminated on:  17:57:50  20Oct2025            

=------------------------------------------------------------------------------=
   JOB DONE.
=------------------------------------------------------------------------------=
