LAMMPS (22 Jul 2025 - Update 1)
# ---------- 1. Initialize simulation ---------------------
units metal
atom_style atomic
dimension  3
boundary   p p f
read_data /home/bond/Work/Lab1/Surface/LJ/scan/3_10_111/lammps.data
Reading data file ...
  orthogonal box = (0 0 0) to (8.7451919 7.5735584 24.76028)
  1 by 1 by 1 MPI processor grid
  reading atoms ...
  27 atoms
  read_data CPU = 0.002 seconds

# ---------- 2. Specify interatomic potential ---------------------
pair_style lj/cut 4.5
pair_coeff 1 1 0.392 2.620 4.5

# ---------- 3. Run single point calculation  ---------------------
thermo_style custom step pe lx ly lz press pxx pyy pzz
run 0
WARNING: No fixes with time integration, atoms won't move
For more information see https://docs.lammps.org/err0028 (../verlet.cpp:60)
Generated 0 of 0 mixed pair_coeff terms from geometric mixing rule
Neighbor list info ...
  update: every = 1 steps, delay = 0 steps, check = yes
  max neighbors/atom: 2000, page size: 100000
  master list distance cutoff = 6.5
  ghost atom cutoff = 6.5
  binsize = 3.25, bins = 3 3 8
  1 neighbor lists, perpetual/occasional/extra = 1 0 0
  (1) pair lj/cut, perpetual
      attributes: half, newton on
      pair build: half/bin/atomonly/newton
      stencil: half/bin/3d
      bin: standard
Per MPI rank memory allocation (min/avg/max) = 3.053 | 3.053 | 3.053 Mbytes
   Step         PotEng           Lx             Ly             Lz           Press           Pxx            Pyy            Pzz      
         0  -46.546213      8.7451919      7.5735584      24.76028       61082.27      -8552.0096      152211.33      39587.491    
Loop time of 3.217e-06 on 1 procs for 0 steps with 27 atoms

93.3% CPU use with 1 MPI tasks x no OpenMP threads

MPI task timing breakdown:
Section |  min time  |  avg time  |  max time  |%varavg| %total
---------------------------------------------------------------
Pair    | 0          | 0          | 0          |   0.0 |  0.00
Neigh   | 0          | 0          | 0          |   0.0 |  0.00
Comm    | 0          | 0          | 0          |   0.0 |  0.00
Output  | 0          | 0          | 0          |   0.0 |  0.00
Modify  | 0          | 0          | 0          |   0.0 |  0.00
Other   |            | 3.217e-06  |            |       |100.00

Nlocal:             27 ave          27 max          27 min
Histogram: 1 0 0 0 0 0 0 0 0 0
Nghost:            154 ave         154 max         154 min
Histogram: 1 0 0 0 0 0 0 0 0 0
Neighs:            549 ave         549 max         549 min
Histogram: 1 0 0 0 0 0 0 0 0 0

Total # of neighbors = 549
Ave neighs/atom = 20.333333
Neighbor list builds = 0
Dangerous builds = 0
# -- include optimization of the unit cell parameter
#fix 1 all box/relax x 0.0 y 0.0 vmax 0.001

# -- enable optimization of atomic positions (and the cell)
#min_style cg
#minimize 1e-10 1e-10 1000 10000

# ---- 4. Define and print useful variables -------------
variable natoms equal "count(all)"
variable totenergy equal "pe"
variable length equal "lx"

print "Total energy (eV) = ${totenergy}"
Total energy (eV) = -46.5462130439662
print "Number of atoms = ${natoms}"
Number of atoms = 27
print "Lattice constant (Angstoms) = ${length}"
Lattice constant (Angstoms) = 8.74519193592377
Total wall time: 0:00:00
