LAMMPS (22 Jul 2025 - Update 1)
# ---------- 1. Initialize simulation ---------------------
units metal
atom_style atomic
dimension  3
boundary   p p p
read_data /home/bond/Work/Lab1/Vacancy/LJ/relax/12/lammps.data
Reading data file ...
  orthogonal box = (0 0 0) to (49.470276 49.470276 49.470276)
  1 by 1 by 1 MPI processor grid
  reading atoms ...
  6911 atoms
  read_data CPU = 0.020 seconds

# ---------- 2. Specify interatomic potential ---------------------

pair_style lj/cut 4.5
pair_coeff 1 1 0.392 2.620 4.5

# ---------- 3. Run single point calculation  ---------------------
thermo_style custom step pe lx ly lz press pxx pyy pzz
run 0
WARNING: No fixes with time integration, atoms won't move
For more information see https://docs.lammps.org/err0028 (../verlet.cpp:60)
Generated 0 of 0 mixed pair_coeff terms from geometric mixing rule
Neighbor list info ...
  update: every = 1 steps, delay = 0 steps, check = yes
  max neighbors/atom: 2000, page size: 100000
  master list distance cutoff = 6.5
  ghost atom cutoff = 6.5
  binsize = 3.25, bins = 16 16 16
  1 neighbor lists, perpetual/occasional/extra = 1 0 0
  (1) pair lj/cut, perpetual
      attributes: half, newton on
      pair build: half/bin/atomonly/newton
      stencil: half/bin/3d
      bin: standard
Per MPI rank memory allocation (min/avg/max) = 3.847 | 3.847 | 3.847 Mbytes
   Step         PotEng           Lx             Ly             Lz           Press           Pxx            Pyy            Pzz      
         0  -18205.118      49.470276      49.470276      49.470276     -0.00033626289 -0.00054321535  7.7642003e-05 -0.00054321533
Loop time of 2.152e-06 on 1 procs for 0 steps with 6911 atoms

92.9% CPU use with 1 MPI tasks x no OpenMP threads

MPI task timing breakdown:
Section |  min time  |  avg time  |  max time  |%varavg| %total
---------------------------------------------------------------
Pair    | 0          | 0          | 0          |   0.0 |  0.00
Neigh   | 0          | 0          | 0          |   0.0 |  0.00
Comm    | 0          | 0          | 0          |   0.0 |  0.00
Output  | 0          | 0          | 0          |   0.0 |  0.00
Modify  | 0          | 0          | 0          |   0.0 |  0.00
Other   |            | 2.152e-06  |            |       |100.00

Nlocal:           6911 ave        6911 max        6911 min
Histogram: 1 0 0 0 0 0 0 0 0 0
Nghost:           7976 ave        7976 max        7976 min
Histogram: 1 0 0 0 0 0 0 0 0 0
Neighs:         186570 ave      186570 max      186570 min
Histogram: 1 0 0 0 0 0 0 0 0 0

Total # of neighbors = 186570
Ave neighs/atom = 26.996093
Neighbor list builds = 0
Dangerous builds = 0
# -- include optimization of the unit cell parameter
fix 1 all box/relax iso 0.0 vmax 0.001

# -- enable optimization of atomic positions (and the cell)
min_style cg
minimize 1e-12 1e-12 1000 10000
Generated 0 of 0 mixed pair_coeff terms from geometric mixing rule
WARNING: Energy due to 1 extra global DOFs will be included in minimizer energies
 (../min.cpp:222)
Per MPI rank memory allocation (min/avg/max) = 4.972 | 4.972 | 4.972 Mbytes
   Step         PotEng           Lx             Ly             Lz           Press           Pxx            Pyy            Pzz      
         0  -18205.118      49.470276      49.470276      49.470276     -0.00033626289 -0.00054321535  7.7642003e-05 -0.00054321533
        14  -18205.126      49.470243      49.470243      49.470243      0.07611147     0.076098034    0.076138344    0.076098034  
Loop time of 0.0833763 on 1 procs for 14 steps with 6911 atoms

100.0% CPU use with 1 MPI tasks x no OpenMP threads

Minimization stats:
  Stopping criterion = energy tolerance
  Energy initial, next-to-last, final = 
     -18205.1181394288  -18205.1260759895  -18205.1260760056
  Force two-norm initial, final = 0.4522886 0.061259795
  Force max component initial, final = 0.13063076 0.017254144
  Final line search alpha, max atom move = 0.0055930861 9.6503916e-05
  Iterations, force evaluations = 14 28

MPI task timing breakdown:
Section |  min time  |  avg time  |  max time  |%varavg| %total
---------------------------------------------------------------
Pair    | 0.06853    | 0.06853    | 0.06853    |   0.0 | 82.19
Neigh   | 0          | 0          | 0          |   0.0 |  0.00
Comm    | 0.0015609  | 0.0015609  | 0.0015609  |   0.0 |  1.87
Output  | 0          | 0          | 0          |   0.0 |  0.00
Modify  | 0          | 0          | 0          |   0.0 |  0.00
Other   |            | 0.01329    |            |       | 15.93

Nlocal:           6911 ave        6911 max        6911 min
Histogram: 1 0 0 0 0 0 0 0 0 0
Nghost:           7976 ave        7976 max        7976 min
Histogram: 1 0 0 0 0 0 0 0 0 0
Neighs:         186570 ave      186570 max      186570 min
Histogram: 1 0 0 0 0 0 0 0 0 0

Total # of neighbors = 186570
Ave neighs/atom = 26.996093
Neighbor list builds = 0
Dangerous builds = 0
# ---- 4. Define and print useful variables -------------
variable natoms equal "count(all)"
variable totenergy equal "pe"
variable length equal "lx"

print "Total energy (eV) = ${totenergy}"
Total energy (eV) = -18205.1260760056
print "Number of atoms = ${natoms}"
Number of atoms = 6911
print "Lattice constant (Angstoms) = ${length}"
Lattice constant (Angstoms) = 49.4702427871499
Total wall time: 0:00:00
