
     Program PWSCF v.7.4.1 starts on  8Oct2025 at  0:23:54 

     This program is part of the open-source Quantum ESPRESSO suite
     for quantum simulation of materials; please cite
         "P. Giannozzi et al., J. Phys.:Condens. Matter 21 395502 (2009);
         "P. Giannozzi et al., J. Phys.:Condens. Matter 29 465901 (2017);
         "P. Giannozzi et al., J. Chem. Phys. 152 154105 (2020);
          URL http://www.quantum-espresso.org", 
     in publications or presentations arising from this work. More details at
     http://www.quantum-espresso.org/quote

     Parallel version (MPI), running on     1 processors

     MPI processes distributed on     1 nodes
     312 MiB available memory on the printing compute node when the environment starts

     Waiting for input...
     Reading input from standard input
Warning: card &CELL ignored
Warning: card / ignored

     Current dimensions of program PWSCF are:
     Max number of different atomic species (ntypx) = 10
     Max number of k-points (npk) =  40000
     Max angular momentum in pseudopotentials (lmaxx) =  4
     Message from routine setup:
     using ibrav=0 with symmetry is DISCOURAGED, use correct ibrav instead

     Subspace diagonalization in iterative solution of the eigenvalue problem:
     a serial algorithm will be used


     G-vector sticks info
     --------------------
     sticks:   dense  smooth     PW     G-vecs:    dense   smooth      PW
     Sum         793     793    241                14553    14553    2421

     Using Slab Decomposition



     bravais-lattice index     =            0
     lattice parameter (alat)  =       7.5604  a.u.
     unit-cell volume          =     305.5804 (a.u.)^3
     number of atoms/cell      =            2
     number of atomic types    =            1
     number of electrons       =        28.00
     number of Kohn-Sham states=           14
     kinetic-energy cutoff     =      50.0000  Ry
     charge density cutoff     =     200.0000  Ry
     scf convergence threshold =      1.0E-07
     mixing beta               =       0.5000
     number of iterations used =            8  plain     mixing
     Exchange-correlation=  SLA  PZ   NOGX NOGC
                           (   1   1   0   0   0   0   0)

     celldm(1)=   7.560435  celldm(2)=   0.000000  celldm(3)=   0.000000
     celldm(4)=   0.000000  celldm(5)=   0.000000  celldm(6)=   0.000000

     crystal axes: (cart. coord. in units of alat)
               a(1) = (   0.000000   0.707107   0.707107 )  
               a(2) = (   0.707107   0.000000   0.707107 )  
               a(3) = (   0.707107   0.707107   0.000000 )  

     reciprocal axes: (cart. coord. in units 2 pi/alat)
               b(1) = ( -0.707107  0.707107  0.707107 )  
               b(2) = (  0.707107 -0.707107  0.707107 )  
               b(3) = (  0.707107  0.707107 -0.707107 )  


     PseudoPot. # 1 for Ge read from file:
     /home/bond/Software/QE/qe-7.4.1/pseudo/ge_lda_v1.4.uspp.F.UPF
     MD5 check sum: bf9d52b59cc8a669818bb2b52e0c2ba0
     Pseudo is Ultrasoft + core correction, Zval = 14.0
     Generated by new atomic code, or converted to UPF format
     Using radial grid of  873 points,  6 beta functions with: 
                l(1) =   0
                l(2) =   0
                l(3) =   1
                l(4) =   1
                l(5) =   2
                l(6) =   2
     Q(r) pseudized with  8 coefficients,  rinner =    1.400   1.400   1.400
                                                       1.400   1.400

     atomic species   valence    mass     pseudopotential
     Ge               14.00    72.63000     Ge( 1.00)

      4 Sym. Ops. (no inversion) found



   Cartesian axes

     site n.     atom                  positions (alat units)
         1        Ge     tau(   1) = (   0.0000000   0.0000000   0.0707107  )
         2        Ge     tau(   2) = (   0.3535534   0.3535534   0.3535534  )

     number of k points=    18
                       cart. coord. in units 2pi/alat
        k(    1) = (   0.0000000   0.0000000   0.0000000), wk =   0.0312500
        k(    2) = (   0.1767767   0.1767767  -0.1767767), wk =   0.1250000
        k(    3) = (  -0.3535534  -0.3535534   0.3535534), wk =   0.0625000
        k(    4) = (   0.3535534   0.0000000   0.0000000), wk =   0.1250000
        k(    5) = (  -0.1767767  -0.5303301   0.5303301), wk =   0.2500000
        k(    6) = (   0.0000000  -0.3535534   0.3535534), wk =   0.2500000
        k(    7) = (  -0.7071068   0.0000000   0.0000000), wk =   0.0625000
        k(    8) = (  -0.7071068   0.3535534   0.0000000), wk =   0.1250000
        k(    9) = (   0.1767767  -0.1767767  -0.1767767), wk =   0.1250000
        k(   10) = (  -0.3535534   0.3535534   0.3535534), wk =   0.0625000
        k(   11) = (   0.0000000   0.0000000   0.3535534), wk =   0.0625000
        k(   12) = (  -0.5303301   0.1767767   0.5303301), wk =   0.2500000
        k(   13) = (   0.5303301   0.5303301  -0.1767767), wk =   0.1250000
        k(   14) = (  -0.5303301   0.5303301   0.1767767), wk =   0.1250000
        k(   15) = (   0.3535534   0.3535534   0.0000000), wk =   0.0625000
        k(   16) = (  -0.3535534   0.3535534   0.0000000), wk =   0.0625000
        k(   17) = (   0.0000000   0.0000000  -0.7071068), wk =   0.0312500
        k(   18) = (   0.7071068   0.0000000   0.3535534), wk =   0.0625000

     Dense  grid:    14553 G-vectors     FFT dimensions: (  36,  36,  36)

     Estimated max dynamical RAM per process >      63.43 MB

     Check: negative core charge=   -0.000002

     Initial potential from superposition of free atoms

     starting charge      27.9986, renormalised to      28.0000
     Starting wfcs are   18 randomized atomic wfcs

     total cpu time spent up to now is        1.9 secs

     Self-consistent Calculation

     iteration #  1     ecut=    50.00 Ry     beta= 0.50
     Davidson diagonalization with overlap
     ethr =  1.00E-02,  avg # of iterations =  1.9

     Threshold (ethr) on eigenvalues was too large:
     Diagonalizing with lowered threshold

     Davidson diagonalization with overlap
     ethr =  1.35E-04,  avg # of iterations =  2.0

     total cpu time spent up to now is        3.8 secs

     total energy              =    -426.12148309 Ry
     estimated scf accuracy    <       0.04001672 Ry

     iteration #  2     ecut=    50.00 Ry     beta= 0.50
     Davidson diagonalization with overlap
     ethr =  1.43E-04,  avg # of iterations =  1.1

     total cpu time spent up to now is        4.8 secs

     total energy              =    -426.11999270 Ry
     estimated scf accuracy    <       0.00692267 Ry

     iteration #  3     ecut=    50.00 Ry     beta= 0.50
     Davidson diagonalization with overlap
     ethr =  2.47E-05,  avg # of iterations =  2.1

     total cpu time spent up to now is        6.0 secs

     total energy              =    -426.12053957 Ry
     estimated scf accuracy    <       0.00008826 Ry

     iteration #  4     ecut=    50.00 Ry     beta= 0.50
     Davidson diagonalization with overlap
     ethr =  3.15E-07,  avg # of iterations =  3.3

     total cpu time spent up to now is        7.2 secs

     total energy              =    -426.12057052 Ry
     estimated scf accuracy    <       0.00000301 Ry

     iteration #  5     ecut=    50.00 Ry     beta= 0.50
     Davidson diagonalization with overlap
     ethr =  1.08E-08,  avg # of iterations =  3.9

     total cpu time spent up to now is        8.7 secs

     total energy              =    -426.12057153 Ry
     estimated scf accuracy    <       0.00000018 Ry

     iteration #  6     ecut=    50.00 Ry     beta= 0.50
     Davidson diagonalization with overlap
     ethr =  6.50E-10,  avg # of iterations =  3.4

     total cpu time spent up to now is       10.2 secs

     End of self-consistent calculation

          k = 0.0000 0.0000 0.0000 (  1837 PWs)   bands (ev):

   -16.8279 -16.8221 -16.7603 -16.7240 -16.6989 -16.5499 -16.5184 -16.5163
   -16.4914 -16.4876  -4.7155   6.8895   7.9976   8.4115

          k = 0.1768 0.1768-0.1768 (  1847 PWs)   bands (ev):

   -16.8765 -16.8586 -16.7613 -16.6790 -16.6755 -16.5701 -16.5651 -16.4822
   -16.4710 -16.4436  -3.9324   2.8204   6.9662   8.0230

          k =-0.3536-0.3536 0.3536 (  1850 PWs)   bands (ev):

   -16.9045 -16.8905 -16.7473 -16.6880 -16.6603 -16.5685 -16.5663 -16.4869
   -16.4430 -16.4137  -2.2954  -0.2977   6.3496   7.4857

          k = 0.3536 0.0000 0.0000 (  1828 PWs)   bands (ev):

   -16.8753 -16.8622 -16.7575 -16.6687 -16.6441 -16.6140 -16.5642 -16.4907
   -16.4563 -16.4480  -3.7206   3.0869   6.2339   6.4030

          k =-0.1768-0.5303 0.5303 (  1821 PWs)   bands (ev):

   -16.9111 -16.8872 -16.7388 -16.6733 -16.6440 -16.5843 -16.5778 -16.5104
   -16.4339 -16.4063  -2.0114   0.0322   4.8145   5.9029

          k = 0.0000-0.3536 0.3536 (  1829 PWs)   bands (ev):

   -16.8889 -16.8479 -16.7299 -16.6916 -16.6538 -16.5884 -16.5590 -16.5247
   -16.4624 -16.4295  -2.8902   1.5580   4.2062   6.8680

          k =-0.7071 0.0000 0.0000 (  1772 PWs)   bands (ev):

   -16.8995 -16.8995 -16.7074 -16.7074 -16.6106 -16.6105 -16.5477 -16.5477
   -16.4175 -16.4175  -0.9073  -0.9073   5.2466   5.2466

          k =-0.7071 0.3536 0.0000 (  1800 PWs)   bands (ev):

   -16.8996 -16.8310 -16.7158 -16.7016 -16.6250 -16.6212 -16.5465 -16.5437
   -16.4685 -16.4175  -1.4316   0.0021   3.8759   4.6282

          k = 0.1768-0.1768-0.1768 (  1847 PWs)   bands (ev):

   -16.8305 -16.8224 -16.7471 -16.7147 -16.6832 -16.5651 -16.5401 -16.5165
   -16.4871 -16.4834  -4.0448   3.9155   6.3362   7.9793

          k =-0.3536 0.3536 0.3536 (  1850 PWs)   bands (ev):

   -16.8352 -16.8144 -16.7386 -16.7108 -16.6584 -16.5898 -16.5521 -16.5117
   -16.4905 -16.4819  -2.9748   1.3164   5.9252   7.5567

          k = 0.0000 0.0000 0.3536 (  1828 PWs)   bands (ev):

   -16.8345 -16.8164 -16.7357 -16.7179 -16.6983 -16.5728 -16.5214 -16.5094
   -16.4938 -16.4858  -3.7452   3.5762   5.4972   6.5169

          k =-0.5303 0.1768 0.5303 (  1821 PWs)   bands (ev):

   -16.8891 -16.8503 -16.7259 -16.6662 -16.6411 -16.6053 -16.5831 -16.5276
   -16.4565 -16.4293  -2.4882   1.2780   3.9613   6.0147

          k = 0.5303 0.5303-0.1768 (  1821 PWs)   bands (ev):

   -16.8994 -16.8256 -16.7398 -16.6984 -16.6495 -16.6015 -16.5490 -16.4974
   -16.4930 -16.4183  -2.1641   0.4641   4.0846   6.1776

          k =-0.5303 0.5303 0.1768 (  1821 PWs)   bands (ev):

   -16.8414 -16.8082 -16.7206 -16.7115 -16.6835 -16.5822 -16.5462 -16.5277
   -16.4793 -16.4785  -2.5386   1.3735   4.7697   5.1723

          k = 0.3536 0.3536 0.0000 (  1829 PWs)   bands (ev):

   -16.9202 -16.8725 -16.7624 -16.6600 -16.6441 -16.6050 -16.5690 -16.4768
   -16.4598 -16.3989  -2.5984   0.6346   4.4014   7.3077

          k =-0.3536 0.3536 0.0000 (  1829 PWs)   bands (ev):

   -16.8398 -16.8179 -16.7286 -16.7080 -16.6282 -16.6236 -16.5535 -16.5331
   -16.4761 -16.4744  -3.1068   2.5806   4.2910   5.8693

          k = 0.0000 0.0000-0.7071 (  1772 PWs)   bands (ev):

   -16.8456 -16.7899 -16.7334 -16.7050 -16.7011 -16.5851 -16.5375 -16.5089
   -16.4963 -16.4725  -1.7121   0.2663   4.6086   5.4075

          k = 0.7071 0.0000 0.3536 (  1800 PWs)   bands (ev):

   -16.9027 -16.9027 -16.6943 -16.6942 -16.6121 -16.6121 -16.5612 -16.5612
   -16.4126 -16.4125  -0.8193  -0.8193   4.3780   4.3780

     highest occupied level (ev):     8.4115

!    total energy              =    -426.12057159 Ry
     estimated scf accuracy    <       0.00000002 Ry

     The total energy is the sum of the following terms:
     one-electron contribution =    -280.50244986 Ry
     hartree contribution      =     165.68931866 Ry
     xc contribution           =    -114.55822231 Ry
     ewald contribution        =    -196.74921808 Ry

     convergence has been achieved in   6 iterations

     Forces acting on atoms (cartesian axes, Ry/au):

     atom    1 type  1   force =     0.00000000    0.00000000   -0.11628054
     atom    2 type  1   force =     0.00000000    0.00000000    0.11628054

     Total force =     0.164446     Total SCF correction =     0.000571


     Computing stress (Cartesian axis) and pressure

          total   stress  (Ry/bohr**3)                   (kbar)     P=       18.35
   0.00018181   0.00050537   0.00000000           26.75       74.34        0.00
   0.00050537   0.00018181   0.00000000           74.34       26.75        0.00
  -0.00000000   0.00000000   0.00001056           -0.00        0.00        1.55

     Message from routine punch:
     Nothing written, as per user request (disk_io='none')

     init_run     :      1.38s CPU      1.70s WALL (       1 calls)
     electrons    :      7.62s CPU      8.32s WALL (       1 calls)
     forces       :      0.14s CPU      0.16s WALL (       1 calls)
     stress       :      0.94s CPU      0.99s WALL (       1 calls)

     Called by init_run:
     wfcinit      :      0.71s CPU      0.92s WALL (       1 calls)
     potinit      :      0.02s CPU      0.02s WALL (       1 calls)
     hinit0       :      0.57s CPU      0.61s WALL (       1 calls)

     Called by electrons:
     c_bands      :      5.84s CPU      6.15s WALL (       7 calls)
     sum_band     :      1.39s CPU      1.61s WALL (       7 calls)
     v_of_rho     :      0.02s CPU      0.03s WALL (       7 calls)
     newd         :      0.42s CPU      0.62s WALL (       7 calls)
     mix_rho      :      0.02s CPU      0.02s WALL (       7 calls)

     Called by c_bands:
     init_us_2    :      0.23s CPU      0.25s WALL (     306 calls)
     cegterg      :      5.31s CPU      5.58s WALL (     126 calls)

     Called by *egterg:
     cdiaghg      :      0.13s CPU      0.14s WALL (     427 calls)
     h_psi        :      5.12s CPU      5.53s WALL (     463 calls)
     s_psi        :      0.13s CPU      0.13s WALL (     463 calls)
     g_psi        :      0.03s CPU      0.03s WALL (     319 calls)

     Called by h_psi:
     h_psi:calbec :      0.18s CPU      0.20s WALL (     463 calls)
     vloc_psi     :      4.76s CPU      5.15s WALL (     463 calls)
     add_vuspsi   :      0.15s CPU      0.15s WALL (     463 calls)

     General routines
     calbec       :      0.32s CPU      0.36s WALL (     895 calls)
     fft          :      0.26s CPU      0.26s WALL (      37 calls)
     ffts         :      0.00s CPU      0.00s WALL (       7 calls)
     fftw         :      4.63s CPU      5.00s WALL (   11352 calls)

     Parallel routines

     PWSCF        :     10.22s CPU     11.34s WALL


   This run was terminated on:   0:24: 5   8Oct2025            

=------------------------------------------------------------------------------=
   JOB DONE.
=------------------------------------------------------------------------------=
