
     Program PWSCF v.7.4.1 starts on 20Oct2025 at 17:59:40 

     This program is part of the open-source Quantum ESPRESSO suite
     for quantum simulation of materials; please cite
         "P. Giannozzi et al., J. Phys.:Condens. Matter 21 395502 (2009);
         "P. Giannozzi et al., J. Phys.:Condens. Matter 29 465901 (2017);
         "P. Giannozzi et al., J. Chem. Phys. 152 154105 (2020);
          URL http://www.quantum-espresso.org", 
     in publications or presentations arising from this work. More details at
     http://www.quantum-espresso.org/quote

     Parallel version (MPI), running on     2 processors

     MPI processes distributed on     1 nodes
     259 MiB available memory on the printing compute node when the environment starts

     Waiting for input...
     Reading input from standard input

     Current dimensions of program PWSCF are:
     Max number of different atomic species (ntypx) = 10
     Max number of k-points (npk) =  40000
     Max angular momentum in pseudopotentials (lmaxx) =  4
     file Fe.pbe-nd-rrkjus.UPF: wavefunction(s)  4S renormalized
     Message from routine setup:
     using ibrav=0 with symmetry is DISCOURAGED, use correct ibrav instead

     R & G space division:  proc/nbgrp/npool/nimage =       2
     Subspace diagonalization in iterative solution of the eigenvalue problem:
     a serial algorithm will be used


     Parallelization info
     --------------------
     sticks:   dense  smooth     PW     G-vecs:    dense   smooth      PW
     Min         218      86     33                 2887      739     184
     Max         219      87     34                 2888      742     185
     Sum         437     173     67                 5775     1481     369

     Using Slab Decomposition



     bravais-lattice index     =            0
     lattice parameter (alat)  =       4.4187  a.u.
     unit-cell volume          =      66.4137 (a.u.)^3
     number of atoms/cell      =            1
     number of atomic types    =            1
     number of electrons       =         8.00
     number of Kohn-Sham states=            8
     kinetic-energy cutoff     =      30.0000  Ry
     charge density cutoff     =     300.0000  Ry
     scf convergence threshold =      1.0E-07
     mixing beta               =       0.5000
     number of iterations used =            8  plain     mixing
     energy convergence thresh.=      1.0E-04
     force convergence thresh. =      1.0E-03
     press convergence thresh. =      5.0E-01
     Exchange-correlation=  SLA  PW   PBE  PBE
                           (   1   4   3   4   0   0   0)
     nstep                     =           50


     celldm(1)=   4.418687  celldm(2)=   0.000000  celldm(3)=   0.000000
     celldm(4)=   0.000000  celldm(5)=   0.000000  celldm(6)=   0.000000

     crystal axes: (cart. coord. in units of alat)
               a(1) = (  -0.577350   0.577350   0.577350 )  
               a(2) = (   0.577350  -0.577350   0.577350 )  
               a(3) = (   0.577350   0.577350  -0.577350 )  

     reciprocal axes: (cart. coord. in units 2 pi/alat)
               b(1) = (  0.000000  0.866025  0.866025 )  
               b(2) = (  0.866025  0.000000  0.866025 )  
               b(3) = (  0.866025  0.866025  0.000000 )  


     PseudoPot. # 1 for Fe read from file:
     /home/bond/Software/QE/qe-7.4.1/pseudo/Fe.pbe-nd-rrkjus.UPF
     MD5 check sum: 398036227a04b607635f6f5e8dfd8242
     Pseudo is Ultrasoft + core correction, Zval =  8.0
     Generated by new atomic code, or converted to UPF format
     Using radial grid of  957 points,  6 beta functions with: 
                l(1) =   0
                l(2) =   0
                l(3) =   1
                l(4) =   1
                l(5) =   2
                l(6) =   2
     Q(r) pseudized with 0 coefficients 


     atomic species   valence    mass     pseudopotential
     Fe                8.00    55.84500     Fe( 1.00)

     Starting magnetic structure 
     atomic species   magnetization
     Fe              0.700

     48 Sym. Ops., with inversion, found



   Cartesian axes

     site n.     atom                  positions (alat units)
         1        Fe     tau(   1) = (   0.0000000   0.0000000   0.0000000  )

     number of k points=    56  Methfessel-Paxton smearing, width (Ry)=  0.0200
                       cart. coord. in units 2pi/alat
        k(    1) = (   0.0000000   0.0000000   0.0000000), wk =   0.0007513
        k(    2) = (   0.0787296   0.0787296   0.0000000), wk =   0.0090158
        k(    3) = (   0.1574592   0.1574592   0.0000000), wk =   0.0090158
        k(    4) = (   0.2361887   0.2361887   0.0000000), wk =   0.0090158
        k(    5) = (   0.3149183   0.3149183   0.0000000), wk =   0.0090158
        k(    6) = (   0.3936479   0.3936479   0.0000000), wk =   0.0090158
        k(    7) = (   0.1574592   0.0787296   0.0787296), wk =   0.0180316
        k(    8) = (   0.2361887   0.1574592   0.0787296), wk =   0.0360631
        k(    9) = (   0.3149183   0.2361887   0.0787296), wk =   0.0360631
        k(   10) = (   0.3936479   0.3149183   0.0787296), wk =   0.0360631
        k(   11) = (   0.4723775   0.3936479   0.0787296), wk =   0.0180316
        k(   12) = (   0.3149183   0.1574592   0.1574592), wk =   0.0180316
        k(   13) = (   0.3936479   0.2361887   0.1574592), wk =   0.0360631
        k(   14) = (   0.4723775   0.3149183   0.1574592), wk =   0.0360631
        k(   15) = (   0.4723775   0.2361887   0.2361887), wk =   0.0180316
        k(   16) = (   0.5511071   0.3149183   0.2361887), wk =   0.0180316
        k(   17) = (   0.1574592   0.1574592   0.1574592), wk =   0.0060105
        k(   18) = (   0.2361887   0.2361887   0.1574592), wk =   0.0180316
        k(   19) = (   0.3149183   0.3149183   0.1574592), wk =   0.0180316
        k(   20) = (   0.3936479   0.3936479   0.1574592), wk =   0.0180316
        k(   21) = (  -0.0000000  -0.0000000   0.1574592), wk =   0.0045079
        k(   22) = (   0.3149183   0.2361887   0.2361887), wk =   0.0180316
        k(   23) = (   0.3936479   0.3149183   0.2361887), wk =   0.0360631
        k(   24) = (   0.4723775   0.3936479   0.2361887), wk =   0.0180316
        k(   25) = (   0.0000000  -0.0787296   0.2361887), wk =   0.0180316
        k(   26) = (   0.4723775   0.3149183   0.3149183), wk =   0.0180316
        k(   27) = (   0.0000000  -0.1574592   0.3149183), wk =   0.0180316
        k(   28) = (   0.0787296  -0.0787296   0.3149183), wk =   0.0180316
        k(   29) = (   0.0000000  -0.2361887   0.3936479), wk =   0.0180316
        k(   30) = (   0.0787296  -0.1574592   0.3936479), wk =   0.0360631
        k(   31) = (  -0.0000000  -0.3149183   0.4723775), wk =   0.0180316
        k(   32) = (   0.0787296  -0.2361887   0.4723775), wk =   0.0360631
        k(   33) = (   0.1574592  -0.1574592   0.4723775), wk =   0.0180316
        k(   34) = (  -0.7872958  -0.3149183  -0.3149183), wk =   0.0180316
        k(   35) = (  -0.7085662  -0.2361887  -0.3149183), wk =   0.0360631
        k(   36) = (  -0.6298367  -0.2361887  -0.2361887), wk =   0.0060105
        k(   37) = (   0.3149183   0.3149183   0.3149183), wk =   0.0060105
        k(   38) = (   0.3936479   0.3936479   0.3149183), wk =   0.0180316
        k(   39) = (   0.0000000   0.0000000   0.3149183), wk =   0.0045079
        k(   40) = (   0.4723775   0.3936479   0.3936479), wk =   0.0060105
        k(   41) = (   0.0000000  -0.0787296   0.3936479), wk =   0.0180316
        k(   42) = (   0.0000000  -0.1574592   0.4723775), wk =   0.0180316
        k(   43) = (   0.0787296  -0.0787296   0.4723775), wk =   0.0180316
        k(   44) = (  -0.0000000  -0.2361887   0.5511071), wk =   0.0180316
        k(   45) = (   0.0787296  -0.1574592   0.5511071), wk =   0.0360631
        k(   46) = (  -0.7872958  -0.2361887  -0.2361887), wk =   0.0180316
        k(   47) = (  -0.7085662  -0.1574592  -0.2361887), wk =   0.0180316
        k(   48) = (   0.0000000   0.0000000   0.4723775), wk =   0.0045079
        k(   49) = (   0.0000000  -0.0787296   0.5511071), wk =   0.0180316
        k(   50) = (  -0.0000000  -0.1574592   0.6298367), wk =   0.0180316
        k(   51) = (   0.0787296  -0.0787296   0.6298367), wk =   0.0180316
        k(   52) = (  -0.7872958  -0.1574592  -0.1574592), wk =   0.0180316
        k(   53) = (   0.0000000   0.0000000   0.6298367), wk =   0.0045079
        k(   54) = (  -0.0000000  -0.0787296   0.7085662), wk =   0.0180316
        k(   55) = (  -0.7872958  -0.0787296  -0.0787296), wk =   0.0060105
        k(   56) = (  -0.0000000  -0.0000000   0.7872958), wk =   0.0045079

     Dense  grid:     5775 G-vectors     FFT dimensions: (  25,  25,  25)

     Smooth grid:     1481 G-vectors     FFT dimensions: (  15,  15,  15)

     Estimated max dynamical RAM per process >      15.93 MB

     Estimated total dynamical RAM >      31.87 MB

     Check: negative core charge=   -0.000001
     Generating pointlists ...
     new r_m :   0.4125 (alat units)  1.8227 (a.u.) for type    1

     Initial potential from superposition of free atoms

     starting charge       7.9994, renormalised to       8.0000
     Starting wfcs are    6 randomized atomic wfcs +    2 random wfcs

     total cpu time spent up to now is        0.5 secs

     Self-consistent Calculation

     iteration #  1     ecut=    30.00 Ry     beta= 0.50
     Davidson diagonalization with overlap
     ethr =  1.00E-02,  avg # of iterations =  4.5

     total cpu time spent up to now is        0.7 secs

     total energy              =     -55.66696548 Ry
     estimated scf accuracy    <       0.30315602 Ry

     total magnetization       =     2.83 Bohr mag/cell
     absolute magnetization    =     2.83 Bohr mag/cell

     iteration #  2     ecut=    30.00 Ry     beta= 0.50
     Davidson diagonalization with overlap
     ethr =  3.79E-03,  avg # of iterations =  1.6

     total cpu time spent up to now is        0.9 secs

     total energy              =     -55.75848533 Ry
     estimated scf accuracy    <       0.03654684 Ry

     total magnetization       =     2.63 Bohr mag/cell
     absolute magnetization    =     2.63 Bohr mag/cell

     iteration #  3     ecut=    30.00 Ry     beta= 0.50
     Davidson diagonalization with overlap
     ethr =  4.57E-04,  avg # of iterations =  1.2

     total cpu time spent up to now is        1.1 secs

     total energy              =     -55.77932727 Ry
     estimated scf accuracy    <       0.01042312 Ry

     total magnetization       =     2.50 Bohr mag/cell
     absolute magnetization    =     2.52 Bohr mag/cell

     iteration #  4     ecut=    30.00 Ry     beta= 0.50
     Davidson diagonalization with overlap
     ethr =  1.30E-04,  avg # of iterations =  1.5

     total cpu time spent up to now is        1.3 secs

     total energy              =     -55.78694809 Ry
     estimated scf accuracy    <       0.00035702 Ry

     total magnetization       =     2.21 Bohr mag/cell
     absolute magnetization    =     2.31 Bohr mag/cell

     iteration #  5     ecut=    30.00 Ry     beta= 0.50
     Davidson diagonalization with overlap
     ethr =  4.46E-06,  avg # of iterations =  6.2

     total cpu time spent up to now is        1.6 secs

     total energy              =     -55.78709950 Ry
     estimated scf accuracy    <       0.00009864 Ry

     total magnetization       =     2.15 Bohr mag/cell
     absolute magnetization    =     2.26 Bohr mag/cell

     iteration #  6     ecut=    30.00 Ry     beta= 0.50
     Davidson diagonalization with overlap
     ethr =  1.23E-06,  avg # of iterations =  2.5

     total cpu time spent up to now is        1.8 secs

     total energy              =     -55.78742374 Ry
     estimated scf accuracy    <       0.00003174 Ry

     total magnetization       =     2.08 Bohr mag/cell
     absolute magnetization    =     2.19 Bohr mag/cell

     iteration #  7     ecut=    30.00 Ry     beta= 0.50
     Davidson diagonalization with overlap
     ethr =  3.97E-07,  avg # of iterations =  1.8

     total cpu time spent up to now is        1.9 secs

     total energy              =     -55.78745399 Ry
     estimated scf accuracy    <       0.00000142 Ry

     total magnetization       =     2.10 Bohr mag/cell
     absolute magnetization    =     2.20 Bohr mag/cell

     iteration #  8     ecut=    30.00 Ry     beta= 0.50
     Davidson diagonalization with overlap
     ethr =  1.77E-08,  avg # of iterations =  4.8

     total cpu time spent up to now is        2.2 secs

     total energy              =     -55.78745847 Ry
     estimated scf accuracy    <       0.00000060 Ry

     total magnetization       =     2.10 Bohr mag/cell
     absolute magnetization    =     2.20 Bohr mag/cell

     iteration #  9     ecut=    30.00 Ry     beta= 0.50
     Davidson diagonalization with overlap
     ethr =  7.52E-09,  avg # of iterations =  1.4

     total cpu time spent up to now is        2.3 secs

     total energy              =     -55.78745757 Ry
     estimated scf accuracy    <       0.00000032 Ry

     total magnetization       =     2.10 Bohr mag/cell
     absolute magnetization    =     2.20 Bohr mag/cell

     iteration # 10     ecut=    30.00 Ry     beta= 0.50
     Davidson diagonalization with overlap
     ethr =  3.99E-09,  avg # of iterations =  2.3

     Magnetic moment per site  (integrated on atomic sphere of radius R)
     atom   1 (R=0.413)  charge=  6.3588  magn=  2.1235

     total cpu time spent up to now is        2.5 secs

     End of self-consistent calculation

     Number of k-points >= 100: set verbosity='high' to print the bands.

     the Fermi energy is    16.3873 ev

!    total energy              =     -55.78745976 Ry
     estimated scf accuracy    <       0.00000002 Ry
     smearing contrib. (-TS)   =      -0.00056815 Ry
     internal energy E=F+TS    =     -55.78689161 Ry

     The total energy is F=E-TS. E is the sum of the following terms:
     one-electron contribution =      10.65853251 Ry
     hartree contribution      =       5.75162649 Ry
     xc contribution           =     -26.54847209 Ry
     ewald contribution        =     -45.64857853 Ry

     total magnetization       =     2.09 Bohr mag/cell
     absolute magnetization    =     2.19 Bohr mag/cell

     convergence has been achieved in  10 iterations

     Forces acting on atoms (cartesian axes, Ry/au):

     atom    1 type  1   force =     0.00000000    0.00000000    0.00000000

     Total force =     0.000000     Total SCF correction =     0.000000


     Computing stress (Cartesian axis) and pressure

          total   stress  (Ry/bohr**3)                   (kbar)     P=      417.01
   0.00283478  -0.00000000  -0.00000000          417.01       -0.00       -0.00
  -0.00000000   0.00283478  -0.00000000           -0.00      417.01       -0.00
  -0.00000000  -0.00000000   0.00283478           -0.00       -0.00      417.01


     BFGS Geometry Optimization
     Energy error            =      3.6E-02 Ry
     Gradient error          =      0.0E+00 Ry/Bohr
     Cell gradient error     =      4.2E+02 kbar

     number of scf cycles    =   1
     number of bfgs steps    =   0

     enthalpy           new  =     -55.7874597635 Ry

     new trust radius        =       0.1155098345 bohr
     new conv_thr            =       0.0000001000 Ry

     new unit-cell volume =     81.55821 a.u.^3 (    12.08568 Ang^3 )
     density =      7.67295 g/cm^3

CELL_PARAMETERS (angstrom)
  -1.445673968   1.445673968   1.445673968
   1.445673968  -1.445673968   1.445673968
   1.445673968   1.445673968  -1.445673968

ATOMIC_POSITIONS (angstrom)
Fe               0.0000000000        0.0000000000        0.0000000000


     Message from routine punch:
     Nothing written, as per user request (disk_io='none')
     NEW-OLD atomic charge density approx. for the potential
     New effective cutoffs (rho, wfc):  259.19   26.14

     Check: negative core charge=   -0.000002
     Generating pointlists ...

     total cpu time spent up to now is        2.7 secs

     Self-consistent Calculation

     iteration #  1     ecut=    30.00 Ry     beta= 0.50
     Davidson diagonalization with overlap
     ethr =  1.00E-06,  avg # of iterations =  6.9

     total cpu time spent up to now is        3.1 secs

     total energy              =     -55.79905932 Ry
     estimated scf accuracy    <       0.00219797 Ry

     total magnetization       =     2.25 Bohr mag/cell
     absolute magnetization    =     2.37 Bohr mag/cell

     iteration #  2     ecut=    30.00 Ry     beta= 0.50
     Davidson diagonalization with overlap
     ethr =  2.75E-05,  avg # of iterations =  1.0

     total cpu time spent up to now is        3.2 secs

     total energy              =     -55.79971574 Ry
     estimated scf accuracy    <       0.00118459 Ry

     total magnetization       =     2.30 Bohr mag/cell
     absolute magnetization    =     2.42 Bohr mag/cell

     iteration #  3     ecut=    30.00 Ry     beta= 0.50
     Davidson diagonalization with overlap
     ethr =  1.48E-05,  avg # of iterations =  1.1

     total cpu time spent up to now is        3.4 secs

     total energy              =     -55.80010284 Ry
     estimated scf accuracy    <       0.00049586 Ry

     total magnetization       =     2.33 Bohr mag/cell
     absolute magnetization    =     2.46 Bohr mag/cell

     iteration #  4     ecut=    30.00 Ry     beta= 0.50
     Davidson diagonalization with overlap
     ethr =  6.20E-06,  avg # of iterations =  1.7

     total cpu time spent up to now is        3.5 secs

     total energy              =     -55.79811111 Ry
     estimated scf accuracy    <       0.00014395 Ry

     total magnetization       =     2.44 Bohr mag/cell
     absolute magnetization    =     2.59 Bohr mag/cell

     iteration #  5     ecut=    30.00 Ry     beta= 0.50
     Davidson diagonalization with overlap
     ethr =  1.80E-06,  avg # of iterations =  2.2

     total cpu time spent up to now is        3.7 secs

     total energy              =     -55.79871138 Ry
     estimated scf accuracy    <       0.00068815 Ry

     total magnetization       =     2.29 Bohr mag/cell
     absolute magnetization    =     2.42 Bohr mag/cell

     iteration #  6     ecut=    30.00 Ry     beta= 0.50
     Davidson diagonalization with overlap
     ethr =  1.80E-06,  avg # of iterations =  2.6

     total cpu time spent up to now is        3.9 secs

     total energy              =     -55.80092256 Ry
     estimated scf accuracy    <       0.00006208 Ry

     total magnetization       =     2.51 Bohr mag/cell
     absolute magnetization    =     2.67 Bohr mag/cell

     iteration #  7     ecut=    30.00 Ry     beta= 0.50
     Davidson diagonalization with overlap
     ethr =  7.76E-07,  avg # of iterations =  1.6

     total cpu time spent up to now is        4.1 secs

     total energy              =     -55.80106237 Ry
     estimated scf accuracy    <       0.00001019 Ry

     total magnetization       =     2.56 Bohr mag/cell
     absolute magnetization    =     2.72 Bohr mag/cell

     iteration #  8     ecut=    30.00 Ry     beta= 0.50
     Davidson diagonalization with overlap
     ethr =  1.27E-07,  avg # of iterations =  1.7

     total cpu time spent up to now is        4.2 secs

     total energy              =     -55.80104688 Ry
     estimated scf accuracy    <       0.00000572 Ry

     total magnetization       =     2.56 Bohr mag/cell
     absolute magnetization    =     2.73 Bohr mag/cell

     iteration #  9     ecut=    30.00 Ry     beta= 0.50
     Davidson diagonalization with overlap
     ethr =  7.14E-08,  avg # of iterations =  2.5

     total cpu time spent up to now is        4.4 secs

     total energy              =     -55.80108358 Ry
     estimated scf accuracy    <       0.00000129 Ry

     total magnetization       =     2.58 Bohr mag/cell
     absolute magnetization    =     2.75 Bohr mag/cell

     iteration # 10     ecut=    30.00 Ry     beta= 0.50
     Davidson diagonalization with overlap
     ethr =  1.61E-08,  avg # of iterations =  2.1

     total cpu time spent up to now is        4.6 secs

     total energy              =     -55.80108569 Ry
     estimated scf accuracy    <       0.00000014 Ry

     total magnetization       =     2.58 Bohr mag/cell
     absolute magnetization    =     2.75 Bohr mag/cell

     iteration # 11     ecut=    30.00 Ry     beta= 0.50
     Davidson diagonalization with overlap
     ethr =  1.76E-09,  avg # of iterations =  3.8

     total cpu time spent up to now is        4.8 secs

     total energy              =     -55.80108599 Ry
     estimated scf accuracy    <       0.00000017 Ry

     total magnetization       =     2.58 Bohr mag/cell
     absolute magnetization    =     2.75 Bohr mag/cell

     iteration # 12     ecut=    30.00 Ry     beta= 0.50
     Davidson diagonalization with overlap
     ethr =  1.76E-09,  avg # of iterations =  1.7

     Magnetic moment per site  (integrated on atomic sphere of radius R)
     atom   1 (R=0.413)  charge=  6.1465  magn=  2.6286

     total cpu time spent up to now is        4.9 secs

     End of self-consistent calculation

     Number of k-points >= 100: set verbosity='high' to print the bands.

     the Fermi energy is    12.4983 ev

!    total energy              =     -55.80108645 Ry
     estimated scf accuracy    <       0.00000002 Ry
     smearing contrib. (-TS)   =       0.00007450 Ry
     internal energy E=F+TS    =     -55.80116095 Ry

     The total energy is F=E-TS. E is the sum of the following terms:
     one-electron contribution =       6.42968935 Ry
     hartree contribution      =       6.85093211 Ry
     xc contribution           =     -26.45420359 Ry
     ewald contribution        =     -42.62757882 Ry

     total magnetization       =     2.58 Bohr mag/cell
     absolute magnetization    =     2.74 Bohr mag/cell

     convergence has been achieved in  12 iterations

     Forces acting on atoms (cartesian axes, Ry/au):

     atom    1 type  1   force =     0.00000000    0.00000000    0.00000000

     Total force =     0.000000     Total SCF correction =     0.000000


     Computing stress (Cartesian axis) and pressure

          total   stress  (Ry/bohr**3)                   (kbar)     P=      -27.82
  -0.00018914  -0.00000000  -0.00000000          -27.82       -0.00       -0.00
  -0.00000000  -0.00018914  -0.00000000           -0.00      -27.82       -0.00
  -0.00000000  -0.00000000  -0.00018914           -0.00       -0.00      -27.82

     Energy error            =      1.4E-02 Ry
     Gradient error          =      0.0E+00 Ry/Bohr
     Cell gradient error     =      2.8E+01 kbar

     number of scf cycles    =   2
     number of bfgs steps    =   1

     enthalpy           old  =     -55.7874597635 Ry
     enthalpy           new  =     -55.8010864460 Ry

     CASE: enthalpy          _new < enthalpy          _old

     new trust radius        =       0.0084956372 bohr
     new conv_thr            =       0.0000000010 Ry

     new unit-cell volume =     80.41276 a.u.^3 (    11.91594 Ang^3 )
     density =      7.78225 g/cm^3

CELL_PARAMETERS (angstrom)
  -1.438874068   1.438874068   1.438874068
   1.438874068  -1.438874068   1.438874068
   1.438874068   1.438874068  -1.438874068

ATOMIC_POSITIONS (angstrom)
Fe               0.0000000000        0.0000000000        0.0000000000


     Message from routine punch:
     Nothing written, as per user request (disk_io='none')
     NEW-OLD atomic charge density approx. for the potential
     New effective cutoffs (rho, wfc):  261.65   26.39

     Check: negative core charge=   -0.000002
     Generating pointlists ...

     total cpu time spent up to now is        5.1 secs

     Self-consistent Calculation

     iteration #  1     ecut=    30.00 Ry     beta= 0.50
     Davidson diagonalization with overlap
     ethr =  1.00E-06,  avg # of iterations =  3.5

     total cpu time spent up to now is        5.4 secs

     total energy              =     -55.80123376 Ry
     estimated scf accuracy    <       0.00002164 Ry

     total magnetization       =     2.55 Bohr mag/cell
     absolute magnetization    =     2.72 Bohr mag/cell

     iteration #  2     ecut=    30.00 Ry     beta= 0.50
     Davidson diagonalization with overlap
     ethr =  2.70E-07,  avg # of iterations =  1.0

     total cpu time spent up to now is        5.5 secs

     total energy              =     -55.80123964 Ry
     estimated scf accuracy    <       0.00001227 Ry

     total magnetization       =     2.55 Bohr mag/cell
     absolute magnetization    =     2.71 Bohr mag/cell

     iteration #  3     ecut=    30.00 Ry     beta= 0.50
     Davidson diagonalization with overlap
     ethr =  1.53E-07,  avg # of iterations =  1.5

     total cpu time spent up to now is        5.7 secs

     total energy              =     -55.80125519 Ry
     estimated scf accuracy    <       0.00000158 Ry

     total magnetization       =     2.53 Bohr mag/cell
     absolute magnetization    =     2.70 Bohr mag/cell

     iteration #  4     ecut=    30.00 Ry     beta= 0.50
     Davidson diagonalization with overlap
     ethr =  1.97E-08,  avg # of iterations =  1.4

     total cpu time spent up to now is        5.8 secs

     total energy              =     -55.80125328 Ry
     estimated scf accuracy    <       0.00000070 Ry

     total magnetization       =     2.53 Bohr mag/cell
     absolute magnetization    =     2.69 Bohr mag/cell

     iteration #  5     ecut=    30.00 Ry     beta= 0.50
     Davidson diagonalization with overlap
     ethr =  8.79E-09,  avg # of iterations =  2.2

     total cpu time spent up to now is        6.0 secs

     total energy              =     -55.80125762 Ry
     estimated scf accuracy    <       0.00000009 Ry

     total magnetization       =     2.52 Bohr mag/cell
     absolute magnetization    =     2.68 Bohr mag/cell

     iteration #  6     ecut=    30.00 Ry     beta= 0.50
     Davidson diagonalization with overlap
     ethr =  1.12E-09,  avg # of iterations =  2.1

     total cpu time spent up to now is        6.2 secs

     total energy              =     -55.80125774 Ry
     estimated scf accuracy    <       0.00000005 Ry

     total magnetization       =     2.52 Bohr mag/cell
     absolute magnetization    =     2.68 Bohr mag/cell

     iteration #  7     ecut=    30.00 Ry     beta= 0.50
     Davidson diagonalization with overlap
     ethr =  6.71E-10,  avg # of iterations =  1.6

     total cpu time spent up to now is        6.3 secs

     total energy              =     -55.80125783 Ry
     estimated scf accuracy    <          1.5E-09 Ry

     total magnetization       =     2.52 Bohr mag/cell
     absolute magnetization    =     2.68 Bohr mag/cell

     iteration #  8     ecut=    30.00 Ry     beta= 0.50
     Davidson diagonalization with overlap
     ethr =  1.85E-11,  avg # of iterations =  5.2

     Magnetic moment per site  (integrated on atomic sphere of radius R)
     atom   1 (R=0.413)  charge=  6.1579  magn=  2.5734

     total cpu time spent up to now is        6.6 secs

     End of self-consistent calculation

     Number of k-points >= 100: set verbosity='high' to print the bands.

     the Fermi energy is    12.7035 ev

!    total energy              =     -55.80125784 Ry
     estimated scf accuracy    <          1.5E-10 Ry
     smearing contrib. (-TS)   =      -0.00001457 Ry
     internal energy E=F+TS    =     -55.80124328 Ry

     The total energy is F=E-TS. E is the sum of the following terms:
     one-electron contribution =       6.71250791 Ry
     hartree contribution      =       6.77073839 Ry
     xc contribution           =     -26.45545932 Ry
     ewald contribution        =     -42.82903026 Ry

     total magnetization       =     2.52 Bohr mag/cell
     absolute magnetization    =     2.68 Bohr mag/cell

     convergence has been achieved in   8 iterations

     Forces acting on atoms (cartesian axes, Ry/au):

     atom    1 type  1   force =     0.00000000    0.00000000    0.00000000

     Total force =     0.000000     Total SCF correction =     0.000000


     Computing stress (Cartesian axis) and pressure

          total   stress  (Ry/bohr**3)                   (kbar)     P=      -16.83
  -0.00011439  -0.00000000  -0.00000000          -16.83       -0.00       -0.00
  -0.00000000  -0.00011439  -0.00000000           -0.00      -16.83       -0.00
  -0.00000000  -0.00000000  -0.00011439           -0.00       -0.00      -16.83

     Energy error            =      1.7E-04 Ry
     Gradient error          =      0.0E+00 Ry/Bohr
     Cell gradient error     =      1.7E+01 kbar

     number of scf cycles    =   3
     number of bfgs steps    =   2

     enthalpy           old  =     -55.8010864460 Ry
     enthalpy           new  =     -55.8012578425 Ry

     CASE: enthalpy          _new < enthalpy          _old

     new trust radius        =       0.0126674164 bohr
     new conv_thr            =       0.0000000010 Ry

     new unit-cell volume =     78.72087 a.u.^3 (    11.66523 Ang^3 )
     density =      7.94951 g/cm^3

CELL_PARAMETERS (angstrom)
  -1.428711152   1.428711152   1.428711152
   1.428711152  -1.428711152   1.428711152
   1.428711152   1.428711152  -1.428711152

ATOMIC_POSITIONS (angstrom)
Fe               0.0000000000        0.0000000000        0.0000000000


     Message from routine punch:
     Nothing written, as per user request (disk_io='none')
     NEW-OLD atomic charge density approx. for the potential
     New effective cutoffs (rho, wfc):  265.38   26.77

     Check: negative core charge=   -0.000003
     Generating pointlists ...

     total cpu time spent up to now is        6.8 secs

     Self-consistent Calculation

     iteration #  1     ecut=    30.00 Ry     beta= 0.50
     Davidson diagonalization with overlap
     ethr =  1.00E-06,  avg # of iterations =  4.1

     total cpu time spent up to now is        7.1 secs

     total energy              =     -55.80128713 Ry
     estimated scf accuracy    <       0.00006816 Ry

     total magnetization       =     2.48 Bohr mag/cell
     absolute magnetization    =     2.64 Bohr mag/cell

     iteration #  2     ecut=    30.00 Ry     beta= 0.50
     Davidson diagonalization with overlap
     ethr =  8.52E-07,  avg # of iterations =  1.0

     total cpu time spent up to now is        7.2 secs

     total energy              =     -55.80128518 Ry
     estimated scf accuracy    <       0.00004393 Ry

     total magnetization       =     2.47 Bohr mag/cell
     absolute magnetization    =     2.63 Bohr mag/cell

     iteration #  3     ecut=    30.00 Ry     beta= 0.50
     Davidson diagonalization with overlap
     ethr =  5.49E-07,  avg # of iterations =  1.6

     total cpu time spent up to now is        7.4 secs

     total energy              =     -55.80137332 Ry
     estimated scf accuracy    <       0.00000655 Ry

     total magnetization       =     2.42 Bohr mag/cell
     absolute magnetization    =     2.58 Bohr mag/cell

     iteration #  4     ecut=    30.00 Ry     beta= 0.50
     Davidson diagonalization with overlap
     ethr =  8.19E-08,  avg # of iterations =  2.3

     total cpu time spent up to now is        7.5 secs

     total energy              =     -55.80139817 Ry
     estimated scf accuracy    <       0.00000150 Ry

     total magnetization       =     2.39 Bohr mag/cell
     absolute magnetization    =     2.55 Bohr mag/cell

     iteration #  5     ecut=    30.00 Ry     beta= 0.50
     Davidson diagonalization with overlap
     ethr =  1.87E-08,  avg # of iterations =  2.4

     total cpu time spent up to now is        7.7 secs

     total energy              =     -55.80141000 Ry
     estimated scf accuracy    <       0.00000013 Ry

     total magnetization       =     2.38 Bohr mag/cell
     absolute magnetization    =     2.53 Bohr mag/cell

     iteration #  6     ecut=    30.00 Ry     beta= 0.50
     Davidson diagonalization with overlap
     ethr =  1.63E-09,  avg # of iterations =  2.9

     total cpu time spent up to now is        7.9 secs

     total energy              =     -55.80141056 Ry
     estimated scf accuracy    <       0.00000004 Ry

     total magnetization       =     2.38 Bohr mag/cell
     absolute magnetization    =     2.53 Bohr mag/cell

     iteration #  7     ecut=    30.00 Ry     beta= 0.50
     Davidson diagonalization with overlap
     ethr =  4.92E-10,  avg # of iterations =  2.9

     Magnetic moment per site  (integrated on atomic sphere of radius R)
     atom   1 (R=0.413)  charge=  6.1760  magn=  2.4306

     total cpu time spent up to now is        8.1 secs

     End of self-consistent calculation

     Number of k-points >= 100: set verbosity='high' to print the bands.

     the Fermi energy is    13.0267 ev

!    total energy              =     -55.80141110 Ry
     estimated scf accuracy    <          7.6E-10 Ry
     smearing contrib. (-TS)   =      -0.00007896 Ry
     internal energy E=F+TS    =     -55.80133214 Ry

     The total energy is F=E-TS. E is the sum of the following terms:
     one-electron contribution =       7.13627239 Ry
     hartree contribution      =       6.64505439 Ry
     xc contribution           =     -26.44897096 Ry
     ewald contribution        =     -43.13368796 Ry

     total magnetization       =     2.38 Bohr mag/cell
     absolute magnetization    =     2.53 Bohr mag/cell

     convergence has been achieved in   7 iterations

     Forces acting on atoms (cartesian axes, Ry/au):

     atom    1 type  1   force =     0.00000000    0.00000000    0.00000000

     Total force =     0.000000     Total SCF correction =     0.000000


     Computing stress (Cartesian axis) and pressure

          total   stress  (Ry/bohr**3)                   (kbar)     P=      -11.03
  -0.00007498   0.00000000   0.00000000          -11.03        0.00        0.00
   0.00000000  -0.00007498   0.00000000            0.00      -11.03        0.00
   0.00000000   0.00000000  -0.00007498            0.00        0.00      -11.03

     Energy error            =      1.5E-04 Ry
     Gradient error          =      0.0E+00 Ry/Bohr
     Cell gradient error     =      1.1E+01 kbar

     number of scf cycles    =   4
     number of bfgs steps    =   3

     enthalpy           old  =     -55.8012578425 Ry
     enthalpy           new  =     -55.8014110978 Ry

     CASE: enthalpy          _new < enthalpy          _old

     new trust radius        =       0.0189339023 bohr
     new conv_thr            =       0.0000000010 Ry

     new unit-cell volume =     76.22780 a.u.^3 (    11.29580 Ang^3 )
     density =      8.20950 g/cm^3

CELL_PARAMETERS (angstrom)
  -1.413466777   1.413466777   1.413466777
   1.413466777  -1.413466777   1.413466777
   1.413466777   1.413466777  -1.413466777

ATOMIC_POSITIONS (angstrom)
Fe               0.0000000000        0.0000000000        0.0000000000


     Message from routine punch:
     Nothing written, as per user request (disk_io='none')
     NEW-OLD atomic charge density approx. for the potential
     New effective cutoffs (rho, wfc):  271.14   27.35

     Check: negative core charge=   -0.000003
     Generating pointlists ...

     total cpu time spent up to now is        8.3 secs

     Self-consistent Calculation

     iteration #  1     ecut=    30.00 Ry     beta= 0.50
     Davidson diagonalization with overlap
     ethr =  1.00E-06,  avg # of iterations =  4.5

     total cpu time spent up to now is        8.6 secs

     total energy              =     -55.80117279 Ry
     estimated scf accuracy    <       0.00013073 Ry

     total magnetization       =     2.32 Bohr mag/cell
     absolute magnetization    =     2.48 Bohr mag/cell

     iteration #  2     ecut=    30.00 Ry     beta= 0.50
     Davidson diagonalization with overlap
     ethr =  1.63E-06,  avg # of iterations =  1.0

     total cpu time spent up to now is        8.7 secs

     total energy              =     -55.80120197 Ry
     estimated scf accuracy    <       0.00007618 Ry

     total magnetization       =     2.31 Bohr mag/cell
     absolute magnetization    =     2.46 Bohr mag/cell

     iteration #  3     ecut=    30.00 Ry     beta= 0.50
     Davidson diagonalization with overlap
     ethr =  9.52E-07,  avg # of iterations =  1.5

     total cpu time spent up to now is        8.9 secs

     total energy              =     -55.80129568 Ry
     estimated scf accuracy    <       0.00000463 Ry

     total magnetization       =     2.27 Bohr mag/cell
     absolute magnetization    =     2.42 Bohr mag/cell

     iteration #  4     ecut=    30.00 Ry     beta= 0.50
     Davidson diagonalization with overlap
     ethr =  5.79E-08,  avg # of iterations =  1.6

     total cpu time spent up to now is        9.0 secs

     total energy              =     -55.80129830 Ry
     estimated scf accuracy    <       0.00000161 Ry

     total magnetization       =     2.27 Bohr mag/cell
     absolute magnetization    =     2.42 Bohr mag/cell

     iteration #  5     ecut=    30.00 Ry     beta= 0.50
     Davidson diagonalization with overlap
     ethr =  2.01E-08,  avg # of iterations =  1.8

     total cpu time spent up to now is        9.2 secs

     total energy              =     -55.80129909 Ry
     estimated scf accuracy    <       0.00000025 Ry

     total magnetization       =     2.27 Bohr mag/cell
     absolute magnetization    =     2.41 Bohr mag/cell

     iteration #  6     ecut=    30.00 Ry     beta= 0.50
     Davidson diagonalization with overlap
     ethr =  3.10E-09,  avg # of iterations =  3.4

     total cpu time spent up to now is        9.4 secs

     total energy              =     -55.80129998 Ry
     estimated scf accuracy    <       0.00000011 Ry

     total magnetization       =     2.27 Bohr mag/cell
     absolute magnetization    =     2.41 Bohr mag/cell

     iteration #  7     ecut=    30.00 Ry     beta= 0.50
     Davidson diagonalization with overlap
     ethr =  1.34E-09,  avg # of iterations =  1.8

     Magnetic moment per site  (integrated on atomic sphere of radius R)
     atom   1 (R=0.413)  charge=  6.2057  magn=  2.3196

     total cpu time spent up to now is        9.6 secs

     End of self-consistent calculation

     Number of k-points >= 100: set verbosity='high' to print the bands.

     the Fermi energy is    13.6048 ev

!    total energy              =     -55.80130010 Ry
     estimated scf accuracy    <          3.2E-10 Ry
     smearing contrib. (-TS)   =       0.00005399 Ry
     internal energy E=F+TS    =     -55.80135409 Ry

     The total energy is F=E-TS. E is the sum of the following terms:
     one-electron contribution =       7.78910317 Ry
     hartree contribution      =       6.46488757 Ry
     xc contribution           =     -26.45645590 Ry
     ewald contribution        =     -43.59888893 Ry

     total magnetization       =     2.27 Bohr mag/cell
     absolute magnetization    =     2.41 Bohr mag/cell

     convergence has been achieved in   7 iterations

     Forces acting on atoms (cartesian axes, Ry/au):

     atom    1 type  1   force =     0.00000000    0.00000000    0.00000000

     Total force =     0.000000     Total SCF correction =     0.000000


     Computing stress (Cartesian axis) and pressure

          total   stress  (Ry/bohr**3)                   (kbar)     P=       31.63
   0.00021503  -0.00000000  -0.00000000           31.63       -0.00       -0.00
  -0.00000000   0.00021503  -0.00000000           -0.00       31.63       -0.00
  -0.00000000  -0.00000000   0.00021503           -0.00       -0.00       31.63

     Energy error            =      1.1E-04 Ry
     Gradient error          =      0.0E+00 Ry/Bohr
     Cell gradient error     =      3.2E+01 kbar

     number of scf cycles    =   5
     number of bfgs steps    =   4

     enthalpy           old  =     -55.8014110978 Ry
     enthalpy           new  =     -55.8013001011 Ry

     CASE: enthalpy          _new > enthalpy          _old

     new trust radius        =       0.0059317486 bohr
     new conv_thr            =       0.0000000010 Ry

     new unit-cell volume =     77.92985 a.u.^3 (    11.54801 Ang^3 )
     density =      8.03020 g/cm^3

CELL_PARAMETERS (angstrom)
  -1.423909600   1.423909600   1.423909600
   1.423909600  -1.423909600   1.423909600
   1.423909600   1.423909600  -1.423909600

ATOMIC_POSITIONS (angstrom)
Fe               0.0000000000        0.0000000000        0.0000000000


     Message from routine punch:
     Nothing written, as per user request (disk_io='none')
     NEW-OLD atomic charge density approx. for the potential
     New effective cutoffs (rho, wfc):  267.17   26.95

     Check: negative core charge=   -0.000003
     Generating pointlists ...

     total cpu time spent up to now is        9.7 secs

     Self-consistent Calculation

     iteration #  1     ecut=    30.00 Ry     beta= 0.50
     Davidson diagonalization with overlap
     ethr =  1.00E-06,  avg # of iterations =  4.1

     total cpu time spent up to now is       10.0 secs

     total energy              =     -55.80142002 Ry
     estimated scf accuracy    <       0.00003292 Ry

     total magnetization       =     2.29 Bohr mag/cell
     absolute magnetization    =     2.44 Bohr mag/cell

     iteration #  2     ecut=    30.00 Ry     beta= 0.50
     Davidson diagonalization with overlap
     ethr =  4.11E-07,  avg # of iterations =  1.0

     total cpu time spent up to now is       10.1 secs

     total energy              =     -55.80143382 Ry
     estimated scf accuracy    <       0.00001814 Ry

     total magnetization       =     2.30 Bohr mag/cell
     absolute magnetization    =     2.44 Bohr mag/cell

     iteration #  3     ecut=    30.00 Ry     beta= 0.50
     Davidson diagonalization with overlap
     ethr =  2.27E-07,  avg # of iterations =  1.5

     total cpu time spent up to now is       10.3 secs

     total energy              =     -55.80144436 Ry
     estimated scf accuracy    <       0.00000411 Ry

     total magnetization       =     2.31 Bohr mag/cell
     absolute magnetization    =     2.46 Bohr mag/cell

     iteration #  4     ecut=    30.00 Ry     beta= 0.50
     Davidson diagonalization with overlap
     ethr =  5.14E-08,  avg # of iterations =  1.6

     total cpu time spent up to now is       10.4 secs

     total energy              =     -55.80144336 Ry
     estimated scf accuracy    <       0.00000100 Ry

     total magnetization       =     2.32 Bohr mag/cell
     absolute magnetization    =     2.47 Bohr mag/cell

     iteration #  5     ecut=    30.00 Ry     beta= 0.50
     Davidson diagonalization with overlap
     ethr =  1.26E-08,  avg # of iterations =  2.5

     total cpu time spent up to now is       10.6 secs

     total energy              =     -55.80144969 Ry
     estimated scf accuracy    <       0.00000007 Ry

     total magnetization       =     2.33 Bohr mag/cell
     absolute magnetization    =     2.48 Bohr mag/cell

     iteration #  6     ecut=    30.00 Ry     beta= 0.50
     Davidson diagonalization with overlap
     ethr =  8.60E-10,  avg # of iterations =  2.7

     total cpu time spent up to now is       10.8 secs

     total energy              =     -55.80144992 Ry
     estimated scf accuracy    <          7.3E-09 Ry

     total magnetization       =     2.32 Bohr mag/cell
     absolute magnetization    =     2.48 Bohr mag/cell

     iteration #  7     ecut=    30.00 Ry     beta= 0.50
     Davidson diagonalization with overlap
     ethr =  9.14E-11,  avg # of iterations =  4.2

     Magnetic moment per site  (integrated on atomic sphere of radius R)
     atom   1 (R=0.413)  charge=  6.1850  magn=  2.3780

     total cpu time spent up to now is       11.0 secs

     End of self-consistent calculation

     Number of k-points >= 100: set verbosity='high' to print the bands.

     the Fermi energy is    13.1998 ev

!    total energy              =     -55.80144998 Ry
     estimated scf accuracy    <          3.7E-11 Ry
     smearing contrib. (-TS)   =      -0.00004017 Ry
     internal energy E=F+TS    =     -55.80140980 Ry

     The total energy is F=E-TS. E is the sum of the following terms:
     one-electron contribution =       7.33956000 Ry
     hartree contribution      =       6.58672694 Ry
     xc contribution           =     -26.44855808 Ry
     ewald contribution        =     -43.27913866 Ry

     total magnetization       =     2.33 Bohr mag/cell
     absolute magnetization    =     2.48 Bohr mag/cell

     convergence has been achieved in   7 iterations

     Forces acting on atoms (cartesian axes, Ry/au):

     atom    1 type  1   force =     0.00000000    0.00000000    0.00000000

     Total force =     0.000000     Total SCF correction =     0.000000


     Computing stress (Cartesian axis) and pressure

          total   stress  (Ry/bohr**3)                   (kbar)     P=       -2.75
  -0.00001867  -0.00000000  -0.00000000           -2.75       -0.00       -0.00
  -0.00000000  -0.00001867  -0.00000000           -0.00       -2.75       -0.00
  -0.00000000  -0.00000000  -0.00001867           -0.00       -0.00       -2.75

     Energy error            =      3.9E-05 Ry
     Gradient error          =      0.0E+00 Ry/Bohr
     Cell gradient error     =      2.7E+00 kbar

     number of scf cycles    =   6
     number of bfgs steps    =   4

     enthalpy           old  =     -55.8014110978 Ry
     enthalpy           new  =     -55.8014499777 Ry

     CASE: enthalpy          _new < enthalpy          _old

     new trust radius        =       0.0019556355 bohr
     new conv_thr            =       0.0000000010 Ry

     new unit-cell volume =     77.67118 a.u.^3 (    11.50968 Ang^3 )
     density =      8.05694 g/cm^3

CELL_PARAMETERS (angstrom)
  -1.422332394   1.422332394   1.422332394
   1.422332394  -1.422332394   1.422332394
   1.422332394   1.422332394  -1.422332394

ATOMIC_POSITIONS (angstrom)
Fe               0.0000000000        0.0000000000        0.0000000000


     Message from routine punch:
     Nothing written, as per user request (disk_io='none')
     NEW-OLD atomic charge density approx. for the potential
     New effective cutoffs (rho, wfc):  267.77   27.01

     Check: negative core charge=   -0.000003
     Generating pointlists ...

     total cpu time spent up to now is       11.2 secs

     Self-consistent Calculation

     iteration #  1     ecut=    30.00 Ry     beta= 0.50
     Davidson diagonalization with overlap
     ethr =  1.00E-06,  avg # of iterations =  2.5

     Threshold (ethr) on eigenvalues was too large:
     Diagonalizing with lowered threshold

     Davidson diagonalization with overlap
     ethr =  1.48E-08,  avg # of iterations =  1.6

     total cpu time spent up to now is       11.5 secs

     total energy              =     -55.80145001 Ry
     estimated scf accuracy    <       0.00000119 Ry

     total magnetization       =     2.32 Bohr mag/cell
     absolute magnetization    =     2.47 Bohr mag/cell

     iteration #  2     ecut=    30.00 Ry     beta= 0.50
     Davidson diagonalization with overlap
     ethr =  1.49E-08,  avg # of iterations =  1.0

     total cpu time spent up to now is       11.7 secs

     total energy              =     -55.80145032 Ry
     estimated scf accuracy    <       0.00000070 Ry

     total magnetization       =     2.32 Bohr mag/cell
     absolute magnetization    =     2.47 Bohr mag/cell

     iteration #  3     ecut=    30.00 Ry     beta= 0.50
     Davidson diagonalization with overlap
     ethr =  8.79E-09,  avg # of iterations =  1.5

     total cpu time spent up to now is       11.8 secs

     total energy              =     -55.80145125 Ry
     estimated scf accuracy    <       0.00000008 Ry

     total magnetization       =     2.31 Bohr mag/cell
     absolute magnetization    =     2.46 Bohr mag/cell

     iteration #  4     ecut=    30.00 Ry     beta= 0.50
     Davidson diagonalization with overlap
     ethr =  9.68E-10,  avg # of iterations =  1.4

     total cpu time spent up to now is       12.0 secs

     total energy              =     -55.80145124 Ry
     estimated scf accuracy    <       0.00000003 Ry

     total magnetization       =     2.31 Bohr mag/cell
     absolute magnetization    =     2.46 Bohr mag/cell

     iteration #  5     ecut=    30.00 Ry     beta= 0.50
     Davidson diagonalization with overlap
     ethr =  4.31E-10,  avg # of iterations =  2.2

     total cpu time spent up to now is       12.2 secs

     total energy              =     -55.80145137 Ry
     estimated scf accuracy    <          1.3E-09 Ry

     total magnetization       =     2.31 Bohr mag/cell
     absolute magnetization    =     2.46 Bohr mag/cell

     iteration #  6     ecut=    30.00 Ry     beta= 0.50
     Davidson diagonalization with overlap
     ethr =  1.62E-11,  avg # of iterations =  3.6

     Magnetic moment per site  (integrated on atomic sphere of radius R)
     atom   1 (R=0.413)  charge=  6.1880  magn=  2.3653

     total cpu time spent up to now is       12.4 secs

     End of self-consistent calculation

     Number of k-points >= 100: set verbosity='high' to print the bands.

     the Fermi energy is    13.2588 ev

!    total energy              =     -55.80145138 Ry
     estimated scf accuracy    <          4.5E-10 Ry
     smearing contrib. (-TS)   =      -0.00002469 Ry
     internal energy E=F+TS    =     -55.80142669 Ry

     The total energy is F=E-TS. E is the sum of the following terms:
     one-electron contribution =       7.40683606 Ry
     hartree contribution      =       6.56803395 Ry
     xc contribution           =     -26.44916635 Ry
     ewald contribution        =     -43.32713034 Ry

     total magnetization       =     2.31 Bohr mag/cell
     absolute magnetization    =     2.46 Bohr mag/cell

     convergence has been achieved in   6 iterations

     Forces acting on atoms (cartesian axes, Ry/au):

     atom    1 type  1   force =     0.00000000    0.00000000    0.00000000

     Total force =     0.000000     Total SCF correction =     0.000000


     Computing stress (Cartesian axis) and pressure

          total   stress  (Ry/bohr**3)                   (kbar)     P=        1.64
   0.00001112  -0.00000000  -0.00000000            1.64       -0.00       -0.00
   0.00000000   0.00001112  -0.00000000            0.00        1.64       -0.00
  -0.00000000  -0.00000000   0.00001112           -0.00       -0.00        1.64

     Energy error            =      1.4E-06 Ry
     Gradient error          =      0.0E+00 Ry/Bohr
     Cell gradient error     =      1.6E+00 kbar

     number of scf cycles    =   7
     number of bfgs steps    =   5

     enthalpy           old  =     -55.8014499777 Ry
     enthalpy           new  =     -55.8014513779 Ry

     CASE: enthalpy          _new < enthalpy          _old

     new trust radius        =       0.0007288892 bohr
     new conv_thr            =       0.0000000010 Ry

     new unit-cell volume =     77.76758 a.u.^3 (    11.52397 Ang^3 )
     density =      8.04695 g/cm^3

CELL_PARAMETERS (angstrom)
  -1.422920564   1.422920564   1.422920564
   1.422920564  -1.422920564   1.422920564
   1.422920564   1.422920564  -1.422920564

ATOMIC_POSITIONS (angstrom)
Fe               0.0000000000        0.0000000000        0.0000000000


     Message from routine punch:
     Nothing written, as per user request (disk_io='none')
     NEW-OLD atomic charge density approx. for the potential
     New effective cutoffs (rho, wfc):  267.54   26.98

     Check: negative core charge=   -0.000003
     Generating pointlists ...

     total cpu time spent up to now is       12.5 secs

     Self-consistent Calculation

     iteration #  1     ecut=    30.00 Ry     beta= 0.50
     Davidson diagonalization with overlap
     ethr =  1.00E-06,  avg # of iterations =  2.0

     Threshold (ethr) on eigenvalues was too large:
     Diagonalizing with lowered threshold

     Davidson diagonalization with overlap
     ethr =  1.98E-09,  avg # of iterations =  2.1

     total cpu time spent up to now is       12.9 secs

     total energy              =     -55.80145150 Ry
     estimated scf accuracy    <       0.00000015 Ry

     total magnetization       =     2.31 Bohr mag/cell
     absolute magnetization    =     2.46 Bohr mag/cell

     iteration #  2     ecut=    30.00 Ry     beta= 0.50
     Davidson diagonalization with overlap
     ethr =  1.85E-09,  avg # of iterations =  1.0

     total cpu time spent up to now is       13.0 secs

     total energy              =     -55.80145158 Ry
     estimated scf accuracy    <       0.00000009 Ry

     total magnetization       =     2.32 Bohr mag/cell
     absolute magnetization    =     2.46 Bohr mag/cell

     iteration #  3     ecut=    30.00 Ry     beta= 0.50
     Davidson diagonalization with overlap
     ethr =  1.14E-09,  avg # of iterations =  1.4

     total cpu time spent up to now is       13.2 secs

     total energy              =     -55.80145162 Ry
     estimated scf accuracy    <       0.00000003 Ry

     total magnetization       =     2.32 Bohr mag/cell
     absolute magnetization    =     2.47 Bohr mag/cell

     iteration #  4     ecut=    30.00 Ry     beta= 0.50
     Davidson diagonalization with overlap
     ethr =  3.52E-10,  avg # of iterations =  1.8

     total cpu time spent up to now is       13.4 secs

     total energy              =     -55.80145165 Ry
     estimated scf accuracy    <          4.8E-09 Ry

     total magnetization       =     2.32 Bohr mag/cell
     absolute magnetization    =     2.47 Bohr mag/cell

     iteration #  5     ecut=    30.00 Ry     beta= 0.50
     Davidson diagonalization with overlap
     ethr =  5.96E-11,  avg # of iterations =  2.5

     Magnetic moment per site  (integrated on atomic sphere of radius R)
     atom   1 (R=0.413)  charge=  6.1869  magn=  2.3698

     total cpu time spent up to now is       13.5 secs

     End of self-consistent calculation

     Number of k-points >= 100: set verbosity='high' to print the bands.

     the Fermi energy is    13.2367 ev

!    total energy              =     -55.80145167 Ry
     estimated scf accuracy    <          1.2E-10 Ry
     smearing contrib. (-TS)   =      -0.00003045 Ry
     internal energy E=F+TS    =     -55.80142122 Ry

     The total energy is F=E-TS. E is the sum of the following terms:
     one-electron contribution =       7.38173039 Ry
     hartree contribution      =       6.57495889 Ry
     xc contribution           =     -26.44888960 Ry
     ewald contribution        =     -43.30922090 Ry

     total magnetization       =     2.32 Bohr mag/cell
     absolute magnetization    =     2.47 Bohr mag/cell

     convergence has been achieved in   5 iterations

     Forces acting on atoms (cartesian axes, Ry/au):

     atom    1 type  1   force =     0.00000000    0.00000000    0.00000000

     Total force =     0.000000     Total SCF correction =     0.000000


     Computing stress (Cartesian axis) and pressure

          total   stress  (Ry/bohr**3)                   (kbar)     P=       -0.18
  -0.00000123  -0.00000000  -0.00000000           -0.18       -0.00       -0.00
  -0.00000000  -0.00000123  -0.00000000           -0.00       -0.18       -0.00
  -0.00000000  -0.00000000  -0.00000123           -0.00       -0.00       -0.18

     Energy error            =      2.9E-07 Ry
     Gradient error          =      0.0E+00 Ry/Bohr
     Cell gradient error     =      1.8E-01 kbar

     bfgs converged in   8 scf cycles and   6 bfgs steps
     (criteria: energy <  1.0E-04 Ry, force <  1.0E-03 Ry/Bohr, cell <  5.0E-01 kbar)

     End of BFGS Geometry Optimization

     Final enthalpy           =     -55.8014516692 Ry

     File /home/bond/Work/Lab4/1A/Fe_bcc_nk_11_relax/pwscf.bfgs deleted, as requested
Begin final coordinates
     new unit-cell volume =     77.76758 a.u.^3 (    11.52397 Ang^3 )
     density =      8.04695 g/cm^3

CELL_PARAMETERS (angstrom)
  -1.422920564   1.422920564   1.422920564
   1.422920564  -1.422920564   1.422920564
   1.422920564   1.422920564  -1.422920564

ATOMIC_POSITIONS (angstrom)
Fe               0.0000000000        0.0000000000        0.0000000000
End final coordinates


     Message from routine punch:
     Nothing written, as per user request (disk_io='none')

     Final scf calculation at the relaxed structure.
     The G-vectors are recalculated for the final unit cell
     Results may differ from those at the preceding step.

     Parallelization info
     --------------------
     sticks:   dense  smooth     PW     G-vecs:    dense   smooth      PW
     Min         241      98     34                 3408      860     190
     Max         242      99     35                 3411      861     191
     Sum         483     197     69                 6819     1721     381

     Using Slab Decomposition



     bravais-lattice index     =            0
     lattice parameter (alat)  =       4.4187  a.u.
     unit-cell volume          =      77.7676 (a.u.)^3
     number of atoms/cell      =            1
     number of atomic types    =            1
     number of electrons       =         8.00
     number of Kohn-Sham states=            8
     kinetic-energy cutoff     =      30.0000  Ry
     charge density cutoff     =     300.0000  Ry
     scf convergence threshold =      1.0E-09
     mixing beta               =       0.5000
     number of iterations used =            8  plain     mixing
     press convergence thresh. =      5.0E-01
     Exchange-correlation=  SLA  PW   PBE  PBE
                           (   1   4   3   4   0   0   0)

     celldm(1)=   4.418687  celldm(2)=   0.000000  celldm(3)=   0.000000
     celldm(4)=   0.000000  celldm(5)=   0.000000  celldm(6)=   0.000000

     crystal axes: (cart. coord. in units of alat)
               a(1) = (  -0.608536   0.608536   0.608536 )  
               a(2) = (   0.608536  -0.608536   0.608536 )  
               a(3) = (   0.608536   0.608536  -0.608536 )  

     reciprocal axes: (cart. coord. in units 2 pi/alat)
               b(1) = (  0.000000  0.821644  0.821644 )  
               b(2) = (  0.821644  0.000000  0.821644 )  
               b(3) = (  0.821644  0.821644  0.000000 )  


     PseudoPot. # 1 for Fe read from file:
     /home/bond/Software/QE/qe-7.4.1/pseudo/Fe.pbe-nd-rrkjus.UPF
     MD5 check sum: 398036227a04b607635f6f5e8dfd8242
     Pseudo is Ultrasoft + core correction, Zval =  8.0
     Generated by new atomic code, or converted to UPF format
     Using radial grid of  957 points,  6 beta functions with: 
                l(1) =   0
                l(2) =   0
                l(3) =   1
                l(4) =   1
                l(5) =   2
                l(6) =   2
     Q(r) pseudized with 0 coefficients 


     atomic species   valence    mass     pseudopotential
     Fe                8.00    55.84500     Fe( 1.00)

     Starting magnetic structure 
     atomic species   magnetization
     Fe              0.383

     48 Sym. Ops., with inversion, found



   Cartesian axes

     site n.     atom                  positions (alat units)
         1        Fe     tau(   1) = (   0.0000000   0.0000000   0.0000000  )

     number of k points=    56  Methfessel-Paxton smearing, width (Ry)=  0.0200
                       cart. coord. in units 2pi/alat
        k(    1) = (   0.0000000   0.0000000   0.0000000), wk =   0.0007513
        k(    2) = (   0.0746949   0.0746949   0.0000000), wk =   0.0090158
        k(    3) = (   0.1493898   0.1493898   0.0000000), wk =   0.0090158
        k(    4) = (   0.2240848   0.2240848   0.0000000), wk =   0.0090158
        k(    5) = (   0.2987797   0.2987797   0.0000000), wk =   0.0090158
        k(    6) = (   0.3734746   0.3734746   0.0000000), wk =   0.0090158
        k(    7) = (   0.1493898   0.0746949   0.0746949), wk =   0.0180316
        k(    8) = (   0.2240848   0.1493898   0.0746949), wk =   0.0360631
        k(    9) = (   0.2987797   0.2240848   0.0746949), wk =   0.0360631
        k(   10) = (   0.3734746   0.2987797   0.0746949), wk =   0.0360631
        k(   11) = (   0.4481695   0.3734746   0.0746949), wk =   0.0180316
        k(   12) = (   0.2987797   0.1493898   0.1493898), wk =   0.0180316
        k(   13) = (   0.3734746   0.2240848   0.1493898), wk =   0.0360631
        k(   14) = (   0.4481695   0.2987797   0.1493898), wk =   0.0360631
        k(   15) = (   0.4481695   0.2240848   0.2240848), wk =   0.0180316
        k(   16) = (   0.5228644   0.2987797   0.2240848), wk =   0.0180316
        k(   17) = (   0.1493898   0.1493898   0.1493898), wk =   0.0060105
        k(   18) = (   0.2240848   0.2240848   0.1493898), wk =   0.0180316
        k(   19) = (   0.2987797   0.2987797   0.1493898), wk =   0.0180316
        k(   20) = (   0.3734746   0.3734746   0.1493898), wk =   0.0180316
        k(   21) = (   0.0000000   0.0000000   0.1493898), wk =   0.0045079
        k(   22) = (   0.2987797   0.2240848   0.2240848), wk =   0.0180316
        k(   23) = (   0.3734746   0.2987797   0.2240848), wk =   0.0360631
        k(   24) = (   0.4481695   0.3734746   0.2240848), wk =   0.0180316
        k(   25) = (   0.0000000  -0.0746949   0.2240848), wk =   0.0180316
        k(   26) = (   0.4481695   0.2987797   0.2987797), wk =   0.0180316
        k(   27) = (   0.0000000  -0.1493898   0.2987797), wk =   0.0180316
        k(   28) = (   0.0746949  -0.0746949   0.2987797), wk =   0.0180316
        k(   29) = (   0.0000000  -0.2240848   0.3734746), wk =   0.0180316
        k(   30) = (   0.0746949  -0.1493898   0.3734746), wk =   0.0360631
        k(   31) = (   0.0000000  -0.2987797   0.4481695), wk =   0.0180316
        k(   32) = (   0.0746949  -0.2240848   0.4481695), wk =   0.0360631
        k(   33) = (   0.1493898  -0.1493898   0.4481695), wk =   0.0180316
        k(   34) = (  -0.7469492  -0.2987797  -0.2987797), wk =   0.0180316
        k(   35) = (  -0.6722543  -0.2240848  -0.2987797), wk =   0.0360631
        k(   36) = (  -0.5975594  -0.2240848  -0.2240848), wk =   0.0060105
        k(   37) = (   0.2987797   0.2987797   0.2987797), wk =   0.0060105
        k(   38) = (   0.3734746   0.3734746   0.2987797), wk =   0.0180316
        k(   39) = (   0.0000000   0.0000000   0.2987797), wk =   0.0045079
        k(   40) = (   0.4481695   0.3734746   0.3734746), wk =   0.0060105
        k(   41) = (   0.0000000  -0.0746949   0.3734746), wk =   0.0180316
        k(   42) = (   0.0000000  -0.1493898   0.4481695), wk =   0.0180316
        k(   43) = (   0.0746949  -0.0746949   0.4481695), wk =   0.0180316
        k(   44) = (   0.0000000  -0.2240848   0.5228644), wk =   0.0180316
        k(   45) = (   0.0746949  -0.1493898   0.5228644), wk =   0.0360631
        k(   46) = (  -0.7469492  -0.2240848  -0.2240848), wk =   0.0180316
        k(   47) = (  -0.6722543  -0.1493898  -0.2240848), wk =   0.0180316
        k(   48) = (   0.0000000   0.0000000   0.4481695), wk =   0.0045079
        k(   49) = (   0.0000000  -0.0746949   0.5228644), wk =   0.0180316
        k(   50) = (   0.0000000  -0.1493898   0.5975594), wk =   0.0180316
        k(   51) = (   0.0746949  -0.0746949   0.5975594), wk =   0.0180316
        k(   52) = (  -0.7469492  -0.1493898  -0.1493898), wk =   0.0180316
        k(   53) = (   0.0000000   0.0000000   0.5975594), wk =   0.0045079
        k(   54) = (   0.0000000  -0.0746949   0.6722543), wk =   0.0180316
        k(   55) = (  -0.7469492  -0.0746949  -0.0746949), wk =   0.0060105
        k(   56) = (  -0.0000000  -0.0000000   0.7469492), wk =   0.0045079

     Dense  grid:     6819 G-vectors     FFT dimensions: (  25,  25,  25)

     Smooth grid:     1721 G-vectors     FFT dimensions: (  18,  18,  18)

     Estimated max dynamical RAM per process >      18.17 MB

     Estimated total dynamical RAM >      36.34 MB

     Check: negative core charge=   -0.000005
     Generating pointlists ...

     Initial potential from superposition of free atoms

     starting charge       7.9994, renormalised to       8.0000
     Starting wfcs are    6 randomized atomic wfcs +    2 random wfcs

     total cpu time spent up to now is       13.9 secs

     Self-consistent Calculation

     iteration #  1     ecut=    30.00 Ry     beta= 0.50
     Davidson diagonalization with overlap
     c_bands:  1 eigenvalues not converged
     c_bands:  1 eigenvalues not converged
     c_bands:  1 eigenvalues not converged
     c_bands:  1 eigenvalues not converged
     c_bands:  1 eigenvalues not converged
     c_bands:  1 eigenvalues not converged
     c_bands:  1 eigenvalues not converged
     c_bands:  1 eigenvalues not converged
     c_bands:  1 eigenvalues not converged
     c_bands:  1 eigenvalues not converged
     c_bands:  1 eigenvalues not converged
     c_bands:  1 eigenvalues not converged
     c_bands:  1 eigenvalues not converged
     c_bands:  1 eigenvalues not converged
     c_bands:  1 eigenvalues not converged
     c_bands:  1 eigenvalues not converged
     ethr =  1.00E-06,  avg # of iterations = 17.0

     total cpu time spent up to now is       15.0 secs

     total energy              =     -55.67265742 Ry
     estimated scf accuracy    <       0.36033100 Ry

     total magnetization       =     2.23 Bohr mag/cell
     absolute magnetization    =     2.23 Bohr mag/cell

     iteration #  2     ecut=    30.00 Ry     beta= 0.50
     Davidson diagonalization with overlap
     ethr =  4.50E-03,  avg # of iterations =  1.9

     total cpu time spent up to now is       15.3 secs

     total energy              =     -55.77832903 Ry
     estimated scf accuracy    <       0.09957231 Ry

     total magnetization       =     2.50 Bohr mag/cell
     absolute magnetization    =     2.51 Bohr mag/cell

     iteration #  3     ecut=    30.00 Ry     beta= 0.50
     Davidson diagonalization with overlap
     ethr =  1.24E-03,  avg # of iterations =  1.0

     total cpu time spent up to now is       15.5 secs

     total energy              =     -55.79980154 Ry
     estimated scf accuracy    <       0.00168379 Ry

     total magnetization       =     2.36 Bohr mag/cell
     absolute magnetization    =     2.39 Bohr mag/cell

     iteration #  4     ecut=    30.00 Ry     beta= 0.50
     Davidson diagonalization with overlap
     ethr =  2.10E-05,  avg # of iterations =  2.3

     total cpu time spent up to now is       15.8 secs

     total energy              =     -55.80194873 Ry
     estimated scf accuracy    <       0.00005378 Ry

     total magnetization       =     2.30 Bohr mag/cell
     absolute magnetization    =     2.43 Bohr mag/cell

     iteration #  5     ecut=    30.00 Ry     beta= 0.50
     Davidson diagonalization with overlap
     ethr =  6.72E-07,  avg # of iterations =  3.9

     total cpu time spent up to now is       16.1 secs

     total energy              =     -55.80202560 Ry
     estimated scf accuracy    <       0.00000871 Ry

     total magnetization       =     2.30 Bohr mag/cell
     absolute magnetization    =     2.44 Bohr mag/cell

     iteration #  6     ecut=    30.00 Ry     beta= 0.50
     Davidson diagonalization with overlap
     ethr =  1.09E-07,  avg # of iterations =  3.6

     total cpu time spent up to now is       16.4 secs

     total energy              =     -55.80204141 Ry
     estimated scf accuracy    <       0.00000213 Ry

     total magnetization       =     2.31 Bohr mag/cell
     absolute magnetization    =     2.46 Bohr mag/cell

     iteration #  7     ecut=    30.00 Ry     beta= 0.50
     Davidson diagonalization with overlap
     ethr =  2.66E-08,  avg # of iterations =  3.0

     total cpu time spent up to now is       16.7 secs

     total energy              =     -55.80204261 Ry
     estimated scf accuracy    <       0.00000405 Ry

     total magnetization       =     2.31 Bohr mag/cell
     absolute magnetization    =     2.46 Bohr mag/cell

     iteration #  8     ecut=    30.00 Ry     beta= 0.50
     Davidson diagonalization with overlap
     ethr =  2.66E-08,  avg # of iterations =  2.0

     total cpu time spent up to now is       17.0 secs

     total energy              =     -55.80204569 Ry
     estimated scf accuracy    <       0.00000007 Ry

     total magnetization       =     2.32 Bohr mag/cell
     absolute magnetization    =     2.47 Bohr mag/cell

     iteration #  9     ecut=    30.00 Ry     beta= 0.50
     Davidson diagonalization with overlap
     ethr =  9.09E-10,  avg # of iterations =  4.7

     total cpu time spent up to now is       17.4 secs

     total energy              =     -55.80204582 Ry
     estimated scf accuracy    <          3.8E-09 Ry

     total magnetization       =     2.32 Bohr mag/cell
     absolute magnetization    =     2.47 Bohr mag/cell

     iteration # 10     ecut=    30.00 Ry     beta= 0.50
     Davidson diagonalization with overlap
     ethr =  4.80E-11,  avg # of iterations =  4.7

     Magnetic moment per site  (integrated on atomic sphere of radius R)
     atom   1 (R=0.413)  charge=  6.1875  magn=  2.3704

     total cpu time spent up to now is       17.8 secs

     End of self-consistent calculation

     Number of k-points >= 100: set verbosity='high' to print the bands.

     the Fermi energy is    13.2346 ev

!    total energy              =     -55.80204585 Ry
     estimated scf accuracy    <          9.3E-11 Ry
     smearing contrib. (-TS)   =      -0.00003140 Ry
     internal energy E=F+TS    =     -55.80201445 Ry

     The total energy is F=E-TS. E is the sum of the following terms:
     one-electron contribution =       7.38104646 Ry
     hartree contribution      =       6.57441357 Ry
     xc contribution           =     -26.44825357 Ry
     ewald contribution        =     -43.30922090 Ry

     total magnetization       =     2.32 Bohr mag/cell
     absolute magnetization    =     2.47 Bohr mag/cell

     convergence has been achieved in  10 iterations

     Forces acting on atoms (cartesian axes, Ry/au):

     atom    1 type  1   force =     0.00000000    0.00000000    0.00000000

     Total force =     0.000000     Total SCF correction =     0.000000


     Computing stress (Cartesian axis) and pressure

          total   stress  (Ry/bohr**3)                   (kbar)     P=       -0.37
  -0.00000250   0.00000000   0.00000000           -0.37        0.00        0.00
   0.00000000  -0.00000250   0.00000000            0.00       -0.37        0.00
   0.00000000   0.00000000  -0.00000250            0.00        0.00       -0.37

     Message from routine punch:
     Nothing written, as per user request (disk_io='none')

     init_run     :      0.58s CPU      0.60s WALL (       2 calls)
     electrons    :     13.71s CPU     15.55s WALL (       9 calls)
     update_pot   :      0.05s CPU      0.05s WALL (       7 calls)
     forces       :      0.24s CPU      0.24s WALL (       9 calls)
     stress       :      1.32s CPU      1.34s WALL (       9 calls)

     Called by init_run:
     wfcinit      :      0.12s CPU      0.13s WALL (       2 calls)
     potinit      :      0.14s CPU      0.15s WALL (       2 calls)
     hinit0       :      0.28s CPU      0.29s WALL (       2 calls)

     Called by electrons:
     c_bands      :     10.11s CPU     11.66s WALL (      74 calls)
     sum_band     :      2.50s CPU      2.73s WALL (      74 calls)
     v_of_rho     :      0.48s CPU      0.51s WALL (      81 calls)
     newd         :      0.67s CPU      0.70s WALL (      81 calls)
     mix_rho      :      0.03s CPU      0.04s WALL (      74 calls)

     Called by c_bands:
     init_us_2    :      0.36s CPU      0.42s WALL (   18816 calls)
     cegterg      :      9.34s CPU     10.77s WALL (    8288 calls)

     Called by *egterg:
     cdiaghg      :      1.46s CPU      1.69s WALL (   29051 calls)
     h_psi        :      6.53s CPU      7.51s WALL (   30283 calls)
     s_psi        :      0.13s CPU      0.16s WALL (   30283 calls)
     g_psi        :      0.05s CPU      0.06s WALL (   21771 calls)

     Called by h_psi:
     h_psi:calbec :      0.38s CPU      0.44s WALL (   30283 calls)
     vloc_psi     :      5.86s CPU      6.73s WALL (   30283 calls)
     add_vuspsi   :      0.14s CPU      0.17s WALL (   30283 calls)

     General routines
     calbec       :      0.60s CPU      0.68s WALL (   55707 calls)
     fft          :      0.24s CPU      0.25s WALL (    2378 calls)
     ffts         :      0.12s CPU      0.12s WALL (     310 calls)
     fftw         :      5.63s CPU      6.46s WALL (  422604 calls)
     interpolate  :      0.13s CPU      0.13s WALL (     162 calls)

     Parallel routines

     PWSCF        :     16.04s CPU     17.96s WALL


   This run was terminated on:  17:59:58  20Oct2025            

=------------------------------------------------------------------------------=
   JOB DONE.
=------------------------------------------------------------------------------=
