
     Program PWSCF v.7.4.1 starts on 21Oct2025 at 19:20:44 

     This program is part of the open-source Quantum ESPRESSO suite
     for quantum simulation of materials; please cite
         "P. Giannozzi et al., J. Phys.:Condens. Matter 21 395502 (2009);
         "P. Giannozzi et al., J. Phys.:Condens. Matter 29 465901 (2017);
         "P. Giannozzi et al., J. Chem. Phys. 152 154105 (2020);
          URL http://www.quantum-espresso.org", 
     in publications or presentations arising from this work. More details at
     http://www.quantum-espresso.org/quote

     Parallel version (MPI), running on     2 processors

     MPI processes distributed on     1 nodes
     276 MiB available memory on the printing compute node when the environment starts

     Waiting for input...
     Reading input from standard input
Warning: card &CELL ignored
Warning: card     CELL_DYNAMICS = 'BFGS' ignored
Warning: card / ignored

     Current dimensions of program PWSCF are:
     Max number of different atomic species (ntypx) = 10
     Max number of k-points (npk) =  40000
     Max angular momentum in pseudopotentials (lmaxx) =  4
     file Cu.pz-d-rrkjus.UPF: wavefunction(s)  3D renormalized
     Message from routine setup:
     using ibrav=0 with symmetry is DISCOURAGED, use correct ibrav instead

     R & G space division:  proc/nbgrp/npool/nimage =       2
     Subspace diagonalization in iterative solution of the eigenvalue problem:
     a serial algorithm will be used


     Parallelization info
     --------------------
     sticks:   dense  smooth     PW     G-vecs:    dense   smooth      PW
     Min         348     174     56                 9078     3218     587
     Max         349     175     57                 9081     3221     588
     Sum         697     349    113                18159     6439    1175

     Using Slab Decomposition



     bravais-lattice index     =            0
     lattice parameter (alat)  =       5.2358  a.u.
     unit-cell volume          =     187.8922 (a.u.)^3
     number of atoms/cell      =            2
     number of atomic types    =            2
     number of electrons       =        22.00
     number of Kohn-Sham states=           15
     kinetic-energy cutoff     =      40.0000  Ry
     charge density cutoff     =     320.0000  Ry
     scf convergence threshold =      1.0E-07
     mixing beta               =       0.7000
     number of iterations used =            8  plain     mixing
     Exchange-correlation=  SLA  PZ   NOGX NOGC
                           (   1   1   0   0   0   0   0)

     celldm(1)=   5.235808  celldm(2)=   0.000000  celldm(3)=   0.000000
     celldm(4)=   0.000000  celldm(5)=   0.000000  celldm(6)=   0.000000

     crystal axes: (cart. coord. in units of alat)
               a(1) = (   1.000000   0.000000   0.000000 )  
               a(2) = (   0.000000   1.000000   0.000000 )  
               a(3) = (   0.000000   0.000000   1.309054 )  

     reciprocal axes: (cart. coord. in units 2 pi/alat)
               b(1) = (  1.000000  0.000000  0.000000 )  
               b(2) = (  0.000000  1.000000  0.000000 )  
               b(3) = (  0.000000  0.000000  0.763910 )  


     PseudoPot. # 1 for Au read from file:
     /home/bond/Software/QE/qe-7.4.1/pseudo/Au.pz-d-rrkjus.UPF
     MD5 check sum: 424ffd4ac9c90487cbadcd287136c95b
     Pseudo is Ultrasoft, Zval = 11.0
     Generated by new atomic code, or converted to UPF format
     Using radial grid of 1279 points,  3 beta functions with: 
                l(1) =   2
                l(2) =   2
                l(3) =   1
     Q(r) pseudized with 0 coefficients 


     PseudoPot. # 2 for Cu read from file:
     /home/bond/Software/QE/qe-7.4.1/pseudo/Cu.pz-d-rrkjus.UPF
     MD5 check sum: fd38ae683e239c95a66f426e1f8e5fc7
     Pseudo is Ultrasoft, Zval = 11.0
     Generated by new atomic code, or converted to UPF format
     Using radial grid of  899 points,  3 beta functions with: 
                l(1) =   2
                l(2) =   2
                l(3) =   1
     Q(r) pseudized with 0 coefficients 


     atomic species   valence    mass     pseudopotential
     Au               11.00   196.96657     Au( 1.00)
     Cu               11.00    63.54600     Cu( 1.00)

     16 Sym. Ops., with inversion, found



   Cartesian axes

     site n.     atom                  positions (alat units)
         1        Cu     tau(   1) = (   0.0000000   0.0000000   0.0000000  )
         2        Au     tau(   2) = (   0.5000018   0.5000018   0.6545276  )

     number of k points=   288  Methfessel-Paxton smearing, width (Ry)=  0.0200

     Number of k-points >= 100: set verbosity='high' to print them.

     Dense  grid:    18159 G-vectors     FFT dimensions: (  30,  30,  40)

     Smooth grid:     6439 G-vectors     FFT dimensions: (  24,  24,  27)

     Estimated max dynamical RAM per process >      49.51 MB

     Estimated total dynamical RAM >      99.03 MB

     Initial potential from superposition of free atoms

     starting charge      21.9996, renormalised to      22.0000
     Starting wfcs are   15 randomized atomic wfcs

     total cpu time spent up to now is        3.1 secs

     Self-consistent Calculation

     iteration #  1     ecut=    40.00 Ry     beta= 0.70
     Davidson diagonalization with overlap
     ethr =  1.00E-02,  avg # of iterations =  4.2

     total cpu time spent up to now is        8.6 secs

     total energy              =    -154.62085041 Ry
     estimated scf accuracy    <       0.26470632 Ry

     iteration #  2     ecut=    40.00 Ry     beta= 0.70
     Davidson diagonalization with overlap
     ethr =  1.20E-03,  avg # of iterations =  2.1

     total cpu time spent up to now is       13.9 secs

     total energy              =    -154.69825048 Ry
     estimated scf accuracy    <       0.16373767 Ry

     iteration #  3     ecut=    40.00 Ry     beta= 0.70
     Davidson diagonalization with overlap
     ethr =  7.44E-04,  avg # of iterations =  2.0

     total cpu time spent up to now is       18.5 secs

     total energy              =    -154.72669611 Ry
     estimated scf accuracy    <       0.01487115 Ry

     iteration #  4     ecut=    40.00 Ry     beta= 0.70
     Davidson diagonalization with overlap
     ethr =  6.76E-05,  avg # of iterations =  3.4

     total cpu time spent up to now is       22.9 secs

     total energy              =    -154.73006591 Ry
     estimated scf accuracy    <       0.00117235 Ry

     iteration #  5     ecut=    40.00 Ry     beta= 0.70
     Davidson diagonalization with overlap
     ethr =  5.33E-06,  avg # of iterations =  3.3

     total cpu time spent up to now is       27.9 secs

     total energy              =    -154.73034405 Ry
     estimated scf accuracy    <       0.00009606 Ry

     iteration #  6     ecut=    40.00 Ry     beta= 0.70
     Davidson diagonalization with overlap
     ethr =  4.37E-07,  avg # of iterations =  1.6

     total cpu time spent up to now is       32.2 secs

     End of self-consistent calculation

     Number of k-points >= 100: set verbosity='high' to print the bands.

     the Fermi energy is    15.7430 ev

!    total energy              =    -154.73036087 Ry
     estimated scf accuracy    <       0.00000007 Ry
     smearing contrib. (-TS)   =       0.00002264 Ry
     internal energy E=F+TS    =    -154.73038352 Ry

     The total energy is F=E-TS. E is the sum of the following terms:
     one-electron contribution =      -4.10485335 Ry
     hartree contribution      =      27.67183430 Ry
     xc contribution           =     -24.55076141 Ry
     ewald contribution        =    -153.74660305 Ry

     convergence has been achieved in   6 iterations


     Computing stress (Cartesian axis) and pressure

          total   stress  (Ry/bohr**3)                   (kbar)     P=        1.77
   0.00001935   0.00000000   0.00000000            2.85        0.00        0.00
   0.00000000   0.00001935   0.00000000            0.00        2.85        0.00
   0.00000000   0.00000000  -0.00000259            0.00        0.00       -0.38

     Message from routine punch:
     Nothing written, as per user request (disk_io='none')

     init_run     :      2.56s CPU      2.77s WALL (       1 calls)
     electrons    :     27.18s CPU     29.13s WALL (       1 calls)
     stress       :      1.42s CPU      1.42s WALL (       1 calls)

     Called by init_run:
     wfcinit      :      1.67s CPU      1.85s WALL (       1 calls)
     potinit      :      0.19s CPU      0.19s WALL (       1 calls)
     hinit0       :      0.59s CPU      0.59s WALL (       1 calls)

     Called by electrons:
     c_bands      :     22.91s CPU     24.54s WALL (       6 calls)
     sum_band     :      4.03s CPU      4.34s WALL (       6 calls)
     v_of_rho     :      0.01s CPU      0.01s WALL (       7 calls)
     newd         :      0.27s CPU      0.29s WALL (       7 calls)
     mix_rho      :      0.01s CPU      0.01s WALL (       6 calls)

     Called by c_bands:
     init_us_2    :      0.59s CPU      0.64s WALL (    4032 calls)
     cegterg      :     21.86s CPU     23.43s WALL (    1728 calls)

     Called by *egterg:
     cdiaghg      :      1.83s CPU      1.95s WALL (    6504 calls)
     h_psi        :     18.82s CPU     20.26s WALL (    6792 calls)
     s_psi        :      0.28s CPU      0.31s WALL (    6792 calls)
     g_psi        :      0.08s CPU      0.08s WALL (    4776 calls)

     Called by h_psi:
     h_psi:calbec :      0.73s CPU      0.79s WALL (    6792 calls)
     vloc_psi     :     17.59s CPU     18.93s WALL (    6792 calls)
     add_vuspsi   :      0.35s CPU      0.38s WALL (    6792 calls)

     General routines
     calbec       :      1.25s CPU      1.33s WALL (   12264 calls)
     fft          :      0.19s CPU      0.19s WALL (      42 calls)
     ffts         :      0.15s CPU      0.16s WALL (      13 calls)
     fftw         :     18.26s CPU     19.67s WALL (  159576 calls)
     interpolate  :      0.16s CPU      0.16s WALL (       7 calls)

     Parallel routines

     PWSCF        :     31.41s CPU     33.64s WALL


   This run was terminated on:  19:21:17  21Oct2025            

=------------------------------------------------------------------------------=
   JOB DONE.
=------------------------------------------------------------------------------=
