LAMMPS (22 Jul 2025 - Update 1)
# ---------- 1. Initialize simulation ---------------------
units metal
atom_style atomic
dimension  3
boundary   p p f
read_data /home/bond/Work/Lab1/Surface/LJ/relax/3_2_111/lammps.data
Reading data file ...
  orthogonal box = (0 0 0) to (8.7451919 7.5735584 8.7602795)
  1 by 1 by 1 MPI processor grid
  reading atoms ...
  27 atoms
  read_data CPU = 0.001 seconds

# ---------- 2. Specify interatomic potential ---------------------
pair_style lj/cut 4.5
pair_coeff 1 1 0.392 2.620 4.5

# ---------- 3. Run single point calculation  ---------------------
thermo_style custom step pe lx ly lz press pxx pyy pzz
run 0
WARNING: No fixes with time integration, atoms won't move
For more information see https://docs.lammps.org/err0028 (../verlet.cpp:60)
Generated 0 of 0 mixed pair_coeff terms from geometric mixing rule
Neighbor list info ...
  update: every = 1 steps, delay = 0 steps, check = yes
  max neighbors/atom: 2000, page size: 100000
  master list distance cutoff = 6.5
  ghost atom cutoff = 6.5
  binsize = 3.25, bins = 3 3 3
  1 neighbor lists, perpetual/occasional/extra = 1 0 0
  (1) pair lj/cut, perpetual
      attributes: half, newton on
      pair build: half/bin/atomonly/newton
      stencil: half/bin/3d
      bin: standard
Per MPI rank memory allocation (min/avg/max) = 3.052 | 3.052 | 3.052 Mbytes
   Step         PotEng           Lx             Ly             Lz           Press           Pxx            Pyy            Pzz      
         0  -46.546213      8.7451919      7.5735584      8.7602795      172644.5      -24171.62       430214.02      111891.1     
Loop time of 2.126e-06 on 1 procs for 0 steps with 27 atoms

141.1% CPU use with 1 MPI tasks x no OpenMP threads

MPI task timing breakdown:
Section |  min time  |  avg time  |  max time  |%varavg| %total
---------------------------------------------------------------
Pair    | 0          | 0          | 0          |   0.0 |  0.00
Neigh   | 0          | 0          | 0          |   0.0 |  0.00
Comm    | 0          | 0          | 0          |   0.0 |  0.00
Output  | 0          | 0          | 0          |   0.0 |  0.00
Modify  | 0          | 0          | 0          |   0.0 |  0.00
Other   |            | 2.126e-06  |            |       |100.00

Nlocal:             27 ave          27 max          27 min
Histogram: 1 0 0 0 0 0 0 0 0 0
Nghost:            154 ave         154 max         154 min
Histogram: 1 0 0 0 0 0 0 0 0 0
Neighs:            549 ave         549 max         549 min
Histogram: 1 0 0 0 0 0 0 0 0 0

Total # of neighbors = 549
Ave neighs/atom = 20.333333
Neighbor list builds = 0
Dangerous builds = 0
# -- include optimization of the unit cell parameter
fix 1 all box/relax x 0.0 y 0.0 couple xy vmax 0.001

# -- enable optimization of atomic positions (and the cell)
min_style cg
minimize 1e-10 1e-10 1000 10000
Generated 0 of 0 mixed pair_coeff terms from geometric mixing rule
WARNING: Energy due to 3 extra global DOFs will be included in minimizer energies
 (../min.cpp:222)
Per MPI rank memory allocation (min/avg/max) = 4.177 | 4.177 | 4.177 Mbytes
   Step         PotEng           Lx             Ly             Lz           Press           Pxx            Pyy            Pzz      
         0  -46.546213      8.7451919      7.5735584      8.7602795      172644.5      -24171.62       430214.02      111891.1     
        47  -50.220981      9.0705683      7.8553426      8.7602795      27113.232     -103415.29      127782.26      56972.722    
Loop time of 0.00212759 on 1 procs for 47 steps with 27 atoms

41.6% CPU use with 1 MPI tasks x no OpenMP threads

Minimization stats:
  Stopping criterion = linesearch alpha is zero
  Energy initial, next-to-last, final = 
     -46.5462130439663   -50.220981288251   -50.220981288251
  Force two-norm initial, final = 109.54662 21.929242
  Force max component initial, final = 73.52217 5.3299135
  Final line search alpha, max atom move = 1.302466e-11 6.9420312e-11
  Iterations, force evaluations = 47 170

MPI task timing breakdown:
Section |  min time  |  avg time  |  max time  |%varavg| %total
---------------------------------------------------------------
Pair    | 0.0012475  | 0.0012475  | 0.0012475  |   0.0 | 58.63
Neigh   | 0          | 0          | 0          |   0.0 |  0.00
Comm    | 0.00013174 | 0.00013174 | 0.00013174 |   0.0 |  6.19
Output  | 0          | 0          | 0          |   0.0 |  0.00
Modify  | 0          | 0          | 0          |   0.0 |  0.00
Other   |            | 0.0007484  |            |       | 35.18

Nlocal:             27 ave          27 max          27 min
Histogram: 1 0 0 0 0 0 0 0 0 0
Nghost:            154 ave         154 max         154 min
Histogram: 1 0 0 0 0 0 0 0 0 0
Neighs:            549 ave         549 max         549 min
Histogram: 1 0 0 0 0 0 0 0 0 0

Total # of neighbors = 549
Ave neighs/atom = 20.333333
Neighbor list builds = 0
Dangerous builds = 0

# ---- 4. Define and print useful variables -------------
variable natoms equal "count(all)"
variable totenergy equal "pe"
variable length equal "lx"

print "Total energy (eV) = ${totenergy}"
Total energy (eV) = -50.220981288251
print "Number of atoms = ${natoms}"
Number of atoms = 27
print "Lattice constant (Angstoms) = ${length}"
Lattice constant (Angstoms) = 9.07056831886227
Total wall time: 0:00:00
