
     Program PWSCF v.7.4.1 starts on 21Oct2025 at 12:54: 7 

     This program is part of the open-source Quantum ESPRESSO suite
     for quantum simulation of materials; please cite
         "P. Giannozzi et al., J. Phys.:Condens. Matter 21 395502 (2009);
         "P. Giannozzi et al., J. Phys.:Condens. Matter 29 465901 (2017);
         "P. Giannozzi et al., J. Chem. Phys. 152 154105 (2020);
          URL http://www.quantum-espresso.org", 
     in publications or presentations arising from this work. More details at
     http://www.quantum-espresso.org/quote

     Parallel version (MPI), running on     2 processors

     MPI processes distributed on     1 nodes
     624 MiB available memory on the printing compute node when the environment starts

     Waiting for input...
     Reading input from standard input
Warning: card &CELL ignored
Warning: card / ignored

     Current dimensions of program PWSCF are:
     Max number of different atomic species (ntypx) = 10
     Max number of k-points (npk) =  40000
     Max angular momentum in pseudopotentials (lmaxx) =  4
     file O.pz-rrkjus.UPF: wavefunction(s)  2S renormalized
     Message from routine setup:
     using ibrav=0 with symmetry is DISCOURAGED, use correct ibrav instead

     R & G space division:  proc/nbgrp/npool/nimage =       2
     Subspace diagonalization in iterative solution of the eigenvalue problem:
     a serial algorithm will be used


     Parallelization info
     --------------------
     sticks:   dense  smooth     PW     G-vecs:    dense   smooth      PW
     Min         516     254     74                12286     4354     709
     Max         517     255     75                12287     4355     710
     Sum        1033     509    149                24573     8709    1419

     Using Slab Decomposition



     bravais-lattice index     =            0
     lattice parameter (alat)  =       7.3227  a.u.
     unit-cell volume          =     392.6555 (a.u.)^3
     number of atoms/cell      =            5
     number of atomic types    =            3
     number of electrons       =        44.00
     number of Kohn-Sham states=           22
     kinetic-energy cutoff     =      30.0000  Ry
     charge density cutoff     =     240.0000  Ry
     scf convergence threshold =      1.0E-07
     mixing beta               =       0.7000
     number of iterations used =            8  plain     mixing
     energy convergence thresh.=      1.0E-04
     force convergence thresh. =      1.0E-03
     Exchange-correlation= SLA  PZ   NOGX NOGC
                           (   1   1   0   0   0   0   0)
     nstep                     =           50


     celldm(1)=   7.322689  celldm(2)=   0.000000  celldm(3)=   0.000000
     celldm(4)=   0.000000  celldm(5)=   0.000000  celldm(6)=   0.000000

     crystal axes: (cart. coord. in units of alat)
               a(1) = (   1.000000   0.000000   0.000000 )  
               a(2) = (   0.000000   1.000000   0.000000 )  
               a(3) = (   0.000000   0.000000   1.000000 )  

     reciprocal axes: (cart. coord. in units 2 pi/alat)
               b(1) = (  1.000000  0.000000  0.000000 )  
               b(2) = (  0.000000  1.000000  0.000000 )  
               b(3) = (  0.000000  0.000000  1.000000 )  


     PseudoPot. # 1 for O  read from file:
     /home/bond/Software/QE/qe-7.4.1/pseudo/O.pz-rrkjus.UPF
     MD5 check sum: 24fb942a68ef5d262e498166c462ef4a
     Pseudo is Ultrasoft, Zval =  6.0
     Generated by new atomic code, or converted to UPF format
     Using radial grid of 1269 points,  4 beta functions with: 
                l(1) =   0
                l(2) =   0
                l(3) =   1
                l(4) =   1
     Q(r) pseudized with 0 coefficients 


     PseudoPot. # 2 for Pb read from file:
     /home/bond/Software/QE/qe-7.4.1/pseudo/Pb.pz-d-van.UPF
     MD5 check sum: 4e1e5920686a026ae26139ac417581ff
     Pseudo is Ultrasoft, Zval = 14.0
     Generated by new atomic code, or converted to UPF format
     Using radial grid of  899 points,  6 beta functions with: 
                l(1) =   0
                l(2) =   0
                l(3) =   1
                l(4) =   1
                l(5) =   2
                l(6) =   2
     Q(r) pseudized with  8 coefficients,  rinner =    1.000   1.000   1.000
                                                       1.000   1.000

     PseudoPot. # 3 for Ti read from file:
     /home/bond/Software/QE/qe-7.4.1/pseudo/Ti.pz-sp-van_ak.UPF
     MD5 check sum: 545d0e6e05332b8871a8093f427cb0ca
     Pseudo is Ultrasoft, Zval = 12.0
     Generated by new atomic code, or converted to UPF format
     Using radial grid of  851 points,  6 beta functions with: 
                l(1) =   0
                l(2) =   0
                l(3) =   1
                l(4) =   1
                l(5) =   2
                l(6) =   2
     Q(r) pseudized with  8 coefficients,  rinner =    1.000   1.000   1.000
                                                       1.000   1.000

     atomic species   valence    mass     pseudopotential
     O                 6.00    15.99900     O ( 1.00)
     Pb               14.00   207.20000     Pb( 1.00)
     Ti               12.00    47.86700     Ti( 1.00)

      8 Sym. Ops. (no inversion) found



   Cartesian axes

     site n.     atom                  positions (alat units)
         1        Pb     tau(   1) = (   0.0000000   0.0000000   0.0000000  )
         2        Ti     tau(   2) = (   0.5000000   0.5000000   0.4749987  )
         3        O      tau(   3) = (   0.0000000   0.5000000   0.5000000  )
         4        O      tau(   4) = (   0.5000000   0.0000000   0.5000000  )
         5        O      tau(   5) = (   0.5000000   0.5000000   0.0000000  )

     number of k points=     6
                       cart. coord. in units 2pi/alat
        k(    1) = (   0.1250000   0.1250000   0.1250000), wk =   0.2500000
        k(    2) = (   0.1250000   0.1250000   0.3750000), wk =   0.2500000
        k(    3) = (   0.1250000   0.3750000   0.3750000), wk =   0.5000000
        k(    4) = (   0.3750000   0.3750000   0.3750000), wk =   0.2500000
        k(    5) = (   0.3750000  -0.1250000   0.1250000), wk =   0.5000000
        k(    6) = (   0.3750000  -0.3750000   0.1250000), wk =   0.2500000

     Dense  grid:    24573 G-vectors     FFT dimensions: (  40,  40,  40)

     Smooth grid:     8709 G-vectors     FFT dimensions: (  25,  25,  25)

     Estimated max dynamical RAM per process >      51.19 MB

     Estimated total dynamical RAM >     102.38 MB

     Initial potential from superposition of free atoms

     starting charge      42.9982, renormalised to      44.0000
     Starting wfcs are   31 randomized atomic wfcs

     total cpu time spent up to now is        1.9 secs

     Self-consistent Calculation

     iteration #  1     ecut=    30.00 Ry     beta= 0.70
     Davidson diagonalization with overlap
     ethr =  1.00E-02,  avg # of iterations =  2.0

     total cpu time spent up to now is        2.4 secs

     total energy              =    -332.61900075 Ry
     estimated scf accuracy    <       1.09598130 Ry

     iteration #  2     ecut=    30.00 Ry     beta= 0.70
     Davidson diagonalization with overlap
     ethr =  2.49E-03,  avg # of iterations =  6.5

     total cpu time spent up to now is        2.9 secs

     total energy              =    -332.40838496 Ry
     estimated scf accuracy    <       4.00497345 Ry

     iteration #  3     ecut=    30.00 Ry     beta= 0.70
     Davidson diagonalization with overlap
     ethr =  2.49E-03,  avg # of iterations =  5.2

     total cpu time spent up to now is        3.4 secs

     total energy              =    -333.15812271 Ry
     estimated scf accuracy    <       0.21016856 Ry

     iteration #  4     ecut=    30.00 Ry     beta= 0.70
     Davidson diagonalization with overlap
     ethr =  4.78E-04,  avg # of iterations =  2.0

     total cpu time spent up to now is        3.8 secs

     total energy              =    -333.15592236 Ry
     estimated scf accuracy    <       0.05609430 Ry

     iteration #  5     ecut=    30.00 Ry     beta= 0.70
     Davidson diagonalization with overlap
     ethr =  1.27E-04,  avg # of iterations =  4.8

     total cpu time spent up to now is        4.2 secs

     total energy              =    -333.18215175 Ry
     estimated scf accuracy    <       0.02326116 Ry

     iteration #  6     ecut=    30.00 Ry     beta= 0.70
     Davidson diagonalization with overlap
     ethr =  5.29E-05,  avg # of iterations =  2.3

     total cpu time spent up to now is        4.6 secs

     total energy              =    -333.18073503 Ry
     estimated scf accuracy    <       0.00847517 Ry

     iteration #  7     ecut=    30.00 Ry     beta= 0.70
     Davidson diagonalization with overlap
     ethr =  1.93E-05,  avg # of iterations =  4.3

     total cpu time spent up to now is        5.0 secs

     total energy              =    -333.18312152 Ry
     estimated scf accuracy    <       0.00020517 Ry

     iteration #  8     ecut=    30.00 Ry     beta= 0.70
     Davidson diagonalization with overlap
     ethr =  4.66E-07,  avg # of iterations =  4.3

     total cpu time spent up to now is        5.4 secs

     total energy              =    -333.18313570 Ry
     estimated scf accuracy    <       0.00033101 Ry

     iteration #  9     ecut=    30.00 Ry     beta= 0.70
     Davidson diagonalization with overlap
     ethr =  4.66E-07,  avg # of iterations =  1.5

     total cpu time spent up to now is        5.7 secs

     total energy              =    -333.18308376 Ry
     estimated scf accuracy    <       0.00018995 Ry

     iteration # 10     ecut=    30.00 Ry     beta= 0.70
     Davidson diagonalization with overlap
     ethr =  4.32E-07,  avg # of iterations =  3.7

     total cpu time spent up to now is        6.2 secs

     total energy              =    -333.18311406 Ry
     estimated scf accuracy    <       0.00000548 Ry

     iteration # 11     ecut=    30.00 Ry     beta= 0.70
     Davidson diagonalization with overlap
     ethr =  1.25E-08,  avg # of iterations =  5.8

     total cpu time spent up to now is        6.6 secs

     total energy              =    -333.18311948 Ry
     estimated scf accuracy    <       0.00000836 Ry

     iteration # 12     ecut=    30.00 Ry     beta= 0.70
     Davidson diagonalization with overlap
     ethr =  1.25E-08,  avg # of iterations =  1.0

     total cpu time spent up to now is        7.1 secs

     total energy              =    -333.18311795 Ry
     estimated scf accuracy    <       0.00000455 Ry

     iteration # 13     ecut=    30.00 Ry     beta= 0.70
     Davidson diagonalization with overlap
     ethr =  1.04E-08,  avg # of iterations =  3.3

     total cpu time spent up to now is        7.5 secs

     End of self-consistent calculation

          k = 0.1250 0.1250 0.1250 (  1090 PWs)   bands (ev):

   -44.6028 -21.2474 -21.2094 -21.2084  -6.3255  -5.2682  -5.2269  -3.9640
    -3.9599  -3.9473  -3.7802  -3.7755   4.6568   7.3042   7.3250   8.0914
     9.0807   9.1324   9.8135   9.8739  10.0241  10.1685

          k = 0.1250 0.1250 0.3750 (  1095 PWs)   bands (ev):

   -44.6016 -21.3058 -21.2072 -21.2063  -5.8968  -5.1110  -5.1035  -4.0248
    -3.9592  -3.9433  -3.8739  -3.7500   3.9054   6.8354   7.2845   7.8633
     8.4850   8.6905   9.4193   9.9301  10.1594  10.9061

          k = 0.1250 0.3750 0.3750 (  1087 PWs)   bands (ev):

   -44.6003 -21.3022 -21.2631 -21.2046  -5.6821  -5.0180  -4.9305  -3.9982
    -3.9536  -3.8999  -3.8093  -3.6512   3.5472   6.7329   6.9282   7.1988
     7.5100   8.7106   9.4208   9.5116  10.0543  10.7105

          k = 0.3750 0.3750 0.3750 (  1082 PWs)   bands (ev):

   -44.5990 -21.2997 -21.2608 -21.2605  -5.3043  -5.1407  -5.1107  -3.9103
    -3.9051  -3.6192  -3.5552  -3.5415   4.1706   5.9294   5.9642   6.7138
     7.0770   7.1015   7.9949  10.6546  10.6942  10.7661

          k = 0.3750-0.1250 0.1250 (  1095 PWs)   bands (ev):

   -44.6016 -21.2668 -21.2452 -21.2068  -5.9249  -5.1382  -5.0609  -4.0226
    -3.9563  -3.9445  -3.8791  -3.7459   3.9224   6.8737   7.3603   7.8592
     8.4536   8.7824   9.3449   9.9361  10.0703  10.8633

          k = 0.3750-0.3750 0.1250 (  1087 PWs)   bands (ev):

   -44.6003 -21.2637 -21.2627 -21.2430  -5.7356  -4.9853  -4.9112  -3.9935
    -3.9522  -3.8949  -3.8073  -3.6698   3.5627   6.8357   6.8758   7.1780
     7.4828   8.6884   9.4820   9.5029  10.0396  10.7626

     highest occupied level (ev):    10.9061

!    total energy              =    -333.18311914 Ry
     estimated scf accuracy    <       0.00000010 Ry

     The total energy is the sum of the following terms:
     one-electron contribution =     -76.69518586 Ry
     hartree contribution      =      66.34966974 Ry
     xc contribution           =     -49.65829445 Ry
     ewald contribution        =    -273.17930857 Ry

     convergence has been achieved in  13 iterations

     Forces acting on atoms (cartesian axes, Ry/au):

     atom    1 type  2   force =     0.00000000    0.00000000   -0.01090544
     atom    2 type  3   force =     0.00000000    0.00000000    0.01926272
     atom    3 type  1   force =     0.00000000    0.00000000    0.00006138
     atom    4 type  1   force =     0.00000000    0.00000000    0.00006138
     atom    5 type  1   force =     0.00000000    0.00000000   -0.00848004

     Total force =     0.008480     Total SCF correction =     0.000124


     Computing stress (Cartesian axis) and pressure

          total   stress  (Ry/bohr**3)                   (kbar)     P=       -8.90
  -0.00009287   0.00000000   0.00000000          -13.66        0.00        0.00
   0.00000000  -0.00009287   0.00000000            0.00      -13.66        0.00
   0.00000000   0.00000000   0.00000423            0.00        0.00        0.62


     BFGS Geometry Optimization
     Energy error            =      7.4E-05 Ry
     Gradient error          =      8.5E-03 Ry/Bohr

     number of scf cycles    =   1
     number of bfgs steps    =   0

     energy             new  =    -333.1831191384 Ry

     new trust radius        =       0.0084800407 bohr
     new conv_thr            =       0.0000001000 Ry


ATOMIC_POSITIONS (angstrom)
Pb               0.0000000000        0.0000000000        0.0000000000    0   0   0
Ti               1.9375000000        1.9375000000        1.8406200000    0   0   0
O                0.0000000000        1.9375000000        1.9375324809
O                1.9375000000        0.0000000000        1.9375324809
O                1.9375000000        1.9375000000       -0.0044874443


     Message from routine punch:
     Nothing written, as per user request (disk_io='none')
     NEW-OLD atomic charge density approx. for the potential

     total cpu time spent up to now is        9.1 secs

     Self-consistent Calculation

     iteration #  1     ecut=    30.00 Ry     beta= 0.70
     Davidson diagonalization with overlap
     ethr =  1.00E-06,  avg # of iterations =  3.5

     Threshold (ethr) on eigenvalues was too large:
     Diagonalizing with lowered threshold

     Davidson diagonalization with overlap
     ethr =  2.26E-08,  avg # of iterations =  4.7

     total cpu time spent up to now is        9.9 secs

     total energy              =    -333.18317808 Ry
     estimated scf accuracy    <       0.00001243 Ry

     iteration #  2     ecut=    30.00 Ry     beta= 0.70
     Davidson diagonalization with overlap
     ethr =  2.82E-08,  avg # of iterations =  3.7

     total cpu time spent up to now is       10.3 secs

     total energy              =    -333.18318034 Ry
     estimated scf accuracy    <       0.00000247 Ry

     iteration #  3     ecut=    30.00 Ry     beta= 0.70
     Davidson diagonalization with overlap
     ethr =  5.62E-09,  avg # of iterations =  4.5

     total cpu time spent up to now is       10.7 secs

     total energy              =    -333.18318086 Ry
     estimated scf accuracy    <       0.00000083 Ry

     iteration #  4     ecut=    30.00 Ry     beta= 0.70
     Davidson diagonalization with overlap
     ethr =  1.89E-09,  avg # of iterations =  4.5

     total cpu time spent up to now is       11.2 secs

     total energy              =    -333.18318106 Ry
     estimated scf accuracy    <       0.00000016 Ry

     iteration #  5     ecut=    30.00 Ry     beta= 0.70
     Davidson diagonalization with overlap
     ethr =  3.61E-10,  avg # of iterations =  3.8

     total cpu time spent up to now is       11.6 secs

     End of self-consistent calculation

          k = 0.1250 0.1250 0.1250 (  1090 PWs)   bands (ev):

   -44.6099 -21.2508 -21.2165 -21.2154  -6.3253  -5.2661  -5.2276  -3.9629
    -3.9590  -3.9464  -3.7790  -3.7747   4.6579   7.3049   7.3241   8.0909
     9.0855   9.1354   9.8214   9.8754  10.0232  10.1693

          k = 0.1250 0.1250 0.3750 (  1095 PWs)   bands (ev):

   -44.6087 -21.3091 -21.2143 -21.2133  -5.8976  -5.1080  -5.1044  -4.0237
    -3.9580  -3.9425  -3.8732  -3.7488   3.9078   6.8356   7.2872   7.8615
     8.4857   8.6962   9.4194   9.9317  10.1584  10.9061

          k = 0.1250 0.3750 0.3750 (  1087 PWs)   bands (ev):

   -44.6074 -21.3056 -21.2701 -21.2117  -5.6828  -5.0157  -4.9304  -3.9971
    -3.9525  -3.8989  -3.8083  -3.6507   3.5488   6.7362   6.9259   7.1987
     7.5098   8.7097   9.4256   9.5112  10.0561  10.7131

          k = 0.3750 0.3750 0.3750 (  1082 PWs)   bands (ev):

   -44.6061 -21.3030 -21.2677 -21.2675  -5.3034  -5.1393  -5.1112  -3.9092
    -3.9043  -3.6180  -3.5539  -3.5411   4.1717   5.9320   5.9644   6.7132
     7.0767   7.0993   7.9964  10.6583  10.6963  10.7666

          k = 0.3750-0.1250 0.1250 (  1095 PWs)   bands (ev):

   -44.6087 -21.2738 -21.2486 -21.2138  -5.9240  -5.1368  -5.0616  -4.0217
    -3.9554  -3.9436  -3.8780  -3.7451   3.9235   6.8724   7.3610   7.8594
     8.4541   8.7827   9.3496   9.9380  10.0740  10.8656

          k = 0.3750-0.3750 0.1250 (  1087 PWs)   bands (ev):

   -44.6074 -21.2707 -21.2697 -21.2464  -5.7330  -4.9857  -4.9121  -3.9927
    -3.9512  -3.8942  -3.8065  -3.6681   3.5630   6.8347   6.8748   7.1813
     7.4864   8.6891   9.4831   9.5030  10.0406  10.7622

     highest occupied level (ev):    10.9061

!    total energy              =    -333.18318108 Ry
     estimated scf accuracy    <       0.00000001 Ry

     The total energy is the sum of the following terms:
     one-electron contribution =     -76.65706976 Ry
     hartree contribution      =      66.32910765 Ry
     xc contribution           =     -49.65672193 Ry
     ewald contribution        =    -273.19849704 Ry

     convergence has been achieved in   5 iterations

     Forces acting on atoms (cartesian axes, Ry/au):

     atom    1 type  2   force =     0.00000000    0.00000000   -0.01100020
     atom    2 type  3   force =     0.00000000    0.00000000    0.01839459
     atom    3 type  1   force =     0.00000000    0.00000000   -0.00076127
     atom    4 type  1   force =     0.00000000    0.00000000   -0.00076127
     atom    5 type  1   force =     0.00000000    0.00000000   -0.00587186

     Total force =     0.005970     Total SCF correction =     0.000020


     Computing stress (Cartesian axis) and pressure

          total   stress  (Ry/bohr**3)                   (kbar)     P=       -9.26
  -0.00009205   0.00000000   0.00000000          -13.54        0.00        0.00
   0.00000000  -0.00009205   0.00000000            0.00      -13.54        0.00
   0.00000000   0.00000000  -0.00000480            0.00        0.00       -0.71

     Energy error            =      6.2E-05 Ry
     Gradient error          =      5.9E-03 Ry/Bohr

     number of scf cycles    =   2
     number of bfgs steps    =   1

     energy             old  =    -333.1831191384 Ry
     energy             new  =    -333.1831810803 Ry

     CASE: energy            _new < energy            _old

     new trust radius        =       0.0093280448 bohr
     new conv_thr            =       0.0000000010 Ry


ATOMIC_POSITIONS (angstrom)
Pb               0.0000000000        0.0000000000        0.0000000000    0   0   0
Ti               1.9375000000        1.9375000000        1.8406200000    0   0   0
O                0.0000000000        1.9375000000        1.9369448660
O                1.9375000000        0.0000000000        1.9369448660
O                1.9375000000        1.9375000000       -0.0094236330


     Message from routine punch:
     Nothing written, as per user request (disk_io='none')
     NEW-OLD atomic charge density approx. for the potential

     total cpu time spent up to now is       13.0 secs

     Self-consistent Calculation

     iteration #  1     ecut=    30.00 Ry     beta= 0.70
     Davidson diagonalization with overlap
     ethr =  1.00E-06,  avg # of iterations =  3.7

     Threshold (ethr) on eigenvalues was too large:
     Diagonalizing with lowered threshold

     Davidson diagonalization with overlap
     ethr =  2.92E-08,  avg # of iterations =  5.0

     total cpu time spent up to now is       13.8 secs

     total energy              =    -333.18322032 Ry
     estimated scf accuracy    <       0.00001704 Ry

     iteration #  2     ecut=    30.00 Ry     beta= 0.70
     Davidson diagonalization with overlap
     ethr =  3.87E-08,  avg # of iterations =  4.8

     total cpu time spent up to now is       14.3 secs

     total energy              =    -333.18322100 Ry
     estimated scf accuracy    <       0.00001548 Ry

     iteration #  3     ecut=    30.00 Ry     beta= 0.70
     Davidson diagonalization with overlap
     ethr =  3.52E-08,  avg # of iterations =  4.5

     total cpu time spent up to now is       14.7 secs

     total energy              =    -333.18322468 Ry
     estimated scf accuracy    <       0.00000311 Ry

     iteration #  4     ecut=    30.00 Ry     beta= 0.70
     Davidson diagonalization with overlap
     ethr =  7.07E-09,  avg # of iterations =  3.8

     total cpu time spent up to now is       15.2 secs

     total energy              =    -333.18322517 Ry
     estimated scf accuracy    <       0.00000010 Ry

     iteration #  5     ecut=    30.00 Ry     beta= 0.70
     Davidson diagonalization with overlap
     ethr =  2.37E-10,  avg # of iterations =  5.8

     total cpu time spent up to now is       15.6 secs

     total energy              =    -333.18322527 Ry
     estimated scf accuracy    <       0.00000007 Ry

     iteration #  6     ecut=    30.00 Ry     beta= 0.70
     Davidson diagonalization with overlap
     ethr =  1.70E-10,  avg # of iterations =  2.8

     total cpu time spent up to now is       16.0 secs

     total energy              =    -333.18322527 Ry
     estimated scf accuracy    <       0.00000003 Ry

     iteration #  7     ecut=    30.00 Ry     beta= 0.70
     Davidson diagonalization with overlap
     ethr =  6.28E-11,  avg # of iterations =  4.3

     total cpu time spent up to now is       16.4 secs

     total energy              =    -333.18322528 Ry
     estimated scf accuracy    <          2.6E-09 Ry

     iteration #  8     ecut=    30.00 Ry     beta= 0.70
     Davidson diagonalization with overlap
     ethr =  5.80E-12,  avg # of iterations =  3.5

     total cpu time spent up to now is       17.0 secs

     total energy              =    -333.18322528 Ry
     estimated scf accuracy    <          1.3E-09 Ry

     iteration #  9     ecut=    30.00 Ry     beta= 0.70
     Davidson diagonalization with overlap
     ethr =  2.90E-12,  avg # of iterations =  4.7

     total cpu time spent up to now is       17.5 secs

     End of self-consistent calculation

          k = 0.1250 0.1250 0.1250 (  1090 PWs)   bands (ev):

   -44.6150 -21.2523 -21.2216 -21.2206  -6.3258  -5.2645  -5.2292  -3.9618
    -3.9582  -3.9456  -3.7781  -3.7741   4.6588   7.3052   7.3228   8.0902
     9.0903   9.1380   9.8302   9.8765  10.0211  10.1691

          k = 0.1250 0.1250 0.3750 (  1095 PWs)   bands (ev):

   -44.6137 -21.3105 -21.2194 -21.2185  -5.8994  -5.1062  -5.1054  -4.0227
    -3.9569  -3.9417  -3.8726  -3.7478   3.9101   6.8360   7.2902   7.8592
     8.4856   8.7018   9.4189   9.9327  10.1563  10.9053

          k = 0.1250 0.3750 0.3750 (  1087 PWs)   bands (ev):

   -44.6125 -21.3069 -21.2753 -21.2168  -5.6844  -5.0138  -4.9311  -3.9960
    -3.9516  -3.8979  -3.8075  -3.6503   3.5502   6.7401   6.9229   7.1981
     7.5093   8.7082   9.4301   9.5101  10.0573  10.7151

          k = 0.3750 0.3750 0.3750 (  1082 PWs)   bands (ev):

   -44.6112 -21.3044 -21.2729 -21.2726  -5.3031  -5.1384  -5.1126  -3.9080
    -3.9035  -3.6170  -3.5529  -3.5410   4.1726   5.9344   5.9640   6.7127
     7.0760   7.0964   7.9976  10.6615  10.6974  10.7663

          k = 0.3750-0.1250 0.1250 (  1095 PWs)   bands (ev):

   -44.6138 -21.2789 -21.2500 -21.2190  -5.9238  -5.1359  -5.0631  -4.0208
    -3.9545  -3.9427  -3.8770  -3.7445   3.9244   6.8708   7.3612   7.8592
     8.4544   8.7821   9.3543   9.9393  10.0775  10.8673

          k = 0.3750-0.3750 0.1250 (  1087 PWs)   bands (ev):

   -44.6125 -21.2758 -21.2749 -21.2479  -5.7307  -4.9870  -4.9138  -3.9920
    -3.9503  -3.8936  -3.8058  -3.6665   3.5630   6.8334   6.8734   7.1841
     7.4897   8.6894   9.4834   9.5026  10.0415  10.7606

     highest occupied level (ev):    10.9053

!    total energy              =    -333.18322528 Ry
     estimated scf accuracy    <          1.8E-10 Ry

     The total energy is the sum of the following terms:
     one-electron contribution =     -76.62045162 Ry
     hartree contribution      =      66.30940358 Ry
     xc contribution           =     -49.65537673 Ry
     ewald contribution        =    -273.21680052 Ry

     convergence has been achieved in   9 iterations

     Forces acting on atoms (cartesian axes, Ry/au):

     atom    1 type  2   force =     0.00000000    0.00000000   -0.01112762
     atom    2 type  3   force =     0.00000000    0.00000000    0.01748472
     atom    3 type  1   force =     0.00000000    0.00000000   -0.00155543
     atom    4 type  1   force =     0.00000000    0.00000000   -0.00155543
     atom    5 type  1   force =     0.00000000    0.00000000   -0.00324624

     Total force =     0.003921     Total SCF correction =     0.000003


     Computing stress (Cartesian axis) and pressure

          total   stress  (Ry/bohr**3)                   (kbar)     P=      -10.20
  -0.00009495   0.00000000   0.00000000          -13.97        0.00        0.00
   0.00000000  -0.00009495   0.00000000            0.00      -13.97        0.00
   0.00000000   0.00000000  -0.00001803            0.00        0.00       -2.65

     Energy error            =      4.4E-05 Ry
     Gradient error          =      3.2E-03 Ry/Bohr

     number of scf cycles    =   3
     number of bfgs steps    =   2

     energy             old  =    -333.1831810803 Ry
     energy             new  =    -333.1832252756 Ry

     CASE: energy            _new < energy            _old

     new trust radius        =       0.0139920672 bohr
     new conv_thr            =       0.0000000010 Ry


ATOMIC_POSITIONS (angstrom)
Pb               0.0000000000        0.0000000000        0.0000000000    0   0   0
Ti               1.9375000000        1.9375000000        1.8406200000    0   0   0
O                0.0000000000        1.9375000000        1.9348245699
O                1.9375000000        0.0000000000        1.9348245699
O                1.9375000000        1.9375000000       -0.0168279161


     Message from routine punch:
     Nothing written, as per user request (disk_io='none')
     NEW-OLD atomic charge density approx. for the potential

     total cpu time spent up to now is       19.0 secs

     Self-consistent Calculation

     iteration #  1     ecut=    30.00 Ry     beta= 0.70
     Davidson diagonalization with overlap
     ethr =  1.00E-06,  avg # of iterations =  4.5

     Threshold (ethr) on eigenvalues was too large:
     Diagonalizing with lowered threshold

     Davidson diagonalization with overlap
     ethr =  7.38E-08,  avg # of iterations =  3.0

     total cpu time spent up to now is       19.7 secs

     total energy              =    -333.18325340 Ry
     estimated scf accuracy    <       0.00003538 Ry

     iteration #  2     ecut=    30.00 Ry     beta= 0.70
     Davidson diagonalization with overlap
     ethr =  8.04E-08,  avg # of iterations =  4.5

     total cpu time spent up to now is       20.1 secs

     total energy              =    -333.18325495 Ry
     estimated scf accuracy    <       0.00002281 Ry

     iteration #  3     ecut=    30.00 Ry     beta= 0.70
     Davidson diagonalization with overlap
     ethr =  5.19E-08,  avg # of iterations =  4.5

     total cpu time spent up to now is       20.6 secs

     total energy              =    -333.18326065 Ry
     estimated scf accuracy    <       0.00000838 Ry

     iteration #  4     ecut=    30.00 Ry     beta= 0.70
     Davidson diagonalization with overlap
     ethr =  1.90E-08,  avg # of iterations =  3.7

     total cpu time spent up to now is       21.0 secs

     total energy              =    -333.18326179 Ry
     estimated scf accuracy    <       0.00000030 Ry

     iteration #  5     ecut=    30.00 Ry     beta= 0.70
     Davidson diagonalization with overlap
     ethr =  6.92E-10,  avg # of iterations =  6.3

     total cpu time spent up to now is       21.5 secs

     total energy              =    -333.18326208 Ry
     estimated scf accuracy    <       0.00000033 Ry

     iteration #  6     ecut=    30.00 Ry     beta= 0.70
     Davidson diagonalization with overlap
     ethr =  6.92E-10,  avg # of iterations =  1.8

     total cpu time spent up to now is       21.8 secs

     total energy              =    -333.18326205 Ry
     estimated scf accuracy    <       0.00000013 Ry

     iteration #  7     ecut=    30.00 Ry     beta= 0.70
     Davidson diagonalization with overlap
     ethr =  2.97E-10,  avg # of iterations =  4.3

     total cpu time spent up to now is       22.2 secs

     total energy              =    -333.18326210 Ry
     estimated scf accuracy    <       0.00000004 Ry

     iteration #  8     ecut=    30.00 Ry     beta= 0.70
     Davidson diagonalization with overlap
     ethr =  9.08E-11,  avg # of iterations =  4.0

     total cpu time spent up to now is       22.6 secs

     total energy              =    -333.18326210 Ry
     estimated scf accuracy    <          3.1E-09 Ry

     iteration #  9     ecut=    30.00 Ry     beta= 0.70
     Davidson diagonalization with overlap
     ethr =  7.07E-12,  avg # of iterations =  4.8

     total cpu time spent up to now is       23.0 secs

     End of self-consistent calculation

          k = 0.1250 0.1250 0.1250 (  1090 PWs)   bands (ev):

   -44.6225 -21.2547 -21.2292 -21.2282  -6.3264  -5.2624  -5.2317  -3.9603
    -3.9571  -3.9444  -3.7767  -3.7733   4.6600   7.3059   7.3210   8.0897
     9.0978   9.1412   9.8446   9.8788  10.0177  10.1676

          k = 0.1250 0.1250 0.3750 (  1095 PWs)   bands (ev):

   -44.6212 -21.3129 -21.2270 -21.2261  -5.9018  -5.1090  -5.1016  -4.0212
    -3.9554  -3.9406  -3.8718  -3.7464   3.9135   6.8365   7.2954   7.8566
     8.4847   8.7098   9.4179   9.9348  10.1531  10.9038

          k = 0.1250 0.3750 0.3750 (  1087 PWs)   bands (ev):

   -44.6199 -21.3093 -21.2828 -21.2244  -5.6866  -5.0112  -4.9317  -3.9946
    -3.9502  -3.8966  -3.8062  -3.6499   3.5522   6.7466   6.9174   7.1973
     7.5085   8.7058   9.4361   9.5087  10.0588  10.7184

          k = 0.3750 0.3750 0.3750 (  1082 PWs)   bands (ev):

   -44.6187 -21.3068 -21.2804 -21.2802  -5.3025  -5.1368  -5.1143  -3.9065
    -3.9025  -3.6155  -3.5514  -3.5409   4.1737   5.9378   5.9633   6.7125
     7.0739   7.0914   7.9991  10.6663  10.6988  10.7662

          k = 0.3750-0.1250 0.1250 (  1095 PWs)   bands (ev):

   -44.6212 -21.2865 -21.2525 -21.2266  -5.9233  -5.1349  -5.0652  -4.0196
    -3.9532  -3.9415  -3.8756  -3.7435   3.9256   6.8682   7.3611   7.8587
     8.4550   8.7807   9.3610   9.9415  10.0830  10.8697

          k = 0.3750-0.3750 0.1250 (  1087 PWs)   bands (ev):

   -44.6200 -21.2834 -21.2824 -21.2503  -5.7272  -4.9888  -4.9161  -3.9910
    -3.9491  -3.8927  -3.8048  -3.6642   3.5630   6.8315   6.8709   7.1877
     7.4936   8.6895   9.4834   9.5021  10.0430  10.7585

     highest occupied level (ev):    10.9038

!    total energy              =    -333.18326210 Ry
     estimated scf accuracy    <          8.9E-11 Ry

     The total energy is the sum of the following terms:
     one-electron contribution =     -76.57613162 Ry
     hartree contribution      =      66.28537155 Ry
     xc contribution           =     -49.65358449 Ry
     ewald contribution        =    -273.23891754 Ry

     convergence has been achieved in   9 iterations

     Forces acting on atoms (cartesian axes, Ry/au):

     atom    1 type  2   force =     0.00000000    0.00000000   -0.01114412
     atom    2 type  3   force =     0.00000000    0.00000000    0.01624053
     atom    3 type  1   force =     0.00000000    0.00000000   -0.00260117
     atom    4 type  1   force =     0.00000000    0.00000000   -0.00260117
     atom    5 type  1   force =     0.00000000    0.00000000    0.00010593

     Total force =     0.003680     Total SCF correction =     0.000001


     Computing stress (Cartesian axis) and pressure

          total   stress  (Ry/bohr**3)                   (kbar)     P=      -11.27
  -0.00009731   0.00000000   0.00000000          -14.32        0.00        0.00
   0.00000000  -0.00009731   0.00000000            0.00      -14.32        0.00
   0.00000000   0.00000000  -0.00003516            0.00        0.00       -5.17

     Energy error            =      3.7E-05 Ry
     Gradient error          =      2.6E-03 Ry/Bohr

     number of scf cycles    =   4
     number of bfgs steps    =   3

     energy             old  =    -333.1832252756 Ry
     energy             new  =    -333.1832621022 Ry

     CASE: energy            _new < energy            _old

     new trust radius        =       0.0093346999 bohr
     new conv_thr            =       0.0000000010 Ry


ATOMIC_POSITIONS (angstrom)
Pb               0.0000000000        0.0000000000        0.0000000000    0   0   0
Ti               1.9375000000        1.9375000000        1.8406200000    0   0   0
O                0.0000000000        1.9375000000        1.9318063443
O                1.9375000000        0.0000000000        1.9318063443
O                1.9375000000        1.9375000000       -0.0217676266


     Message from routine punch:
     Nothing written, as per user request (disk_io='none')
     NEW-OLD atomic charge density approx. for the potential

     total cpu time spent up to now is       24.5 secs

     Self-consistent Calculation

     iteration #  1     ecut=    30.00 Ry     beta= 0.70
     Davidson diagonalization with overlap
     ethr =  1.00E-06,  avg # of iterations =  4.2

     Threshold (ethr) on eigenvalues was too large:
     Diagonalizing with lowered threshold

     Davidson diagonalization with overlap
     ethr =  3.33E-08,  avg # of iterations =  5.0

     total cpu time spent up to now is       25.3 secs

     total energy              =    -333.18328456 Ry
     estimated scf accuracy    <       0.00001750 Ry

     iteration #  2     ecut=    30.00 Ry     beta= 0.70
     Davidson diagonalization with overlap
     ethr =  3.98E-08,  avg # of iterations =  4.7

     total cpu time spent up to now is       25.7 secs

     total energy              =    -333.18328446 Ry
     estimated scf accuracy    <       0.00000993 Ry

     iteration #  3     ecut=    30.00 Ry     beta= 0.70
     Davidson diagonalization with overlap
     ethr =  2.26E-08,  avg # of iterations =  4.7

     total cpu time spent up to now is       26.1 secs

     total energy              =    -333.18328726 Ry
     estimated scf accuracy    <       0.00000532 Ry

     iteration #  4     ecut=    30.00 Ry     beta= 0.70
     Davidson diagonalization with overlap
     ethr =  1.21E-08,  avg # of iterations =  3.0

     total cpu time spent up to now is       26.5 secs

     total energy              =    -333.18328770 Ry
     estimated scf accuracy    <       0.00000048 Ry

     iteration #  5     ecut=    30.00 Ry     beta= 0.70
     Davidson diagonalization with overlap
     ethr =  1.10E-09,  avg # of iterations =  5.0

     total cpu time spent up to now is       27.0 secs

     total energy              =    -333.18328807 Ry
     estimated scf accuracy    <       0.00000052 Ry

     iteration #  6     ecut=    30.00 Ry     beta= 0.70
     Davidson diagonalization with overlap
     ethr =  1.10E-09,  avg # of iterations =  1.5

     total cpu time spent up to now is       27.4 secs

     total energy              =    -333.18328800 Ry
     estimated scf accuracy    <       0.00000031 Ry

     iteration #  7     ecut=    30.00 Ry     beta= 0.70
     Davidson diagonalization with overlap
     ethr =  7.11E-10,  avg # of iterations =  3.0

     total cpu time spent up to now is       27.7 secs

     total energy              =    -333.18328803 Ry
     estimated scf accuracy    <       0.00000003 Ry

     iteration #  8     ecut=    30.00 Ry     beta= 0.70
     Davidson diagonalization with overlap
     ethr =  7.10E-11,  avg # of iterations =  4.8

     total cpu time spent up to now is       28.2 secs

     total energy              =    -333.18328805 Ry
     estimated scf accuracy    <          2.9E-09 Ry

     iteration #  9     ecut=    30.00 Ry     beta= 0.70
     Davidson diagonalization with overlap
     ethr =  6.60E-12,  avg # of iterations =  3.3

     total cpu time spent up to now is       28.5 secs

     total energy              =    -333.18328805 Ry
     estimated scf accuracy    <          1.6E-09 Ry

     iteration # 10     ecut=    30.00 Ry     beta= 0.70
     Davidson diagonalization with overlap
     ethr =  3.64E-12,  avg # of iterations =  4.5

     total cpu time spent up to now is       28.9 secs

     End of self-consistent calculation

          k = 0.1250 0.1250 0.1250 (  1090 PWs)   bands (ev):

   -44.6270 -21.2561 -21.2339 -21.2329  -6.3267  -5.2611  -5.2337  -3.9594
    -3.9565  -3.9437  -3.7760  -3.7728   4.6607   7.3065   7.3199   8.0899
     9.1029   9.1431   9.8557   9.8810  10.0148  10.1651

          k = 0.1250 0.1250 0.3750 (  1095 PWs)   bands (ev):

   -44.6258 -21.3143 -21.2317 -21.2308  -5.9035  -5.1113  -5.0990  -4.0204
    -3.9545  -3.9399  -3.8713  -3.7455   3.9159   6.8371   7.3000   7.8557
     8.4829   8.7148   9.4168   9.9368  10.1506  10.9022

          k = 0.1250 0.3750 0.3750 (  1087 PWs)   bands (ev):

   -44.6245 -21.3107 -21.2875 -21.2291  -5.6883  -5.0095  -4.9321  -3.9937
    -3.9494  -3.8958  -3.8055  -3.6497   3.5534   6.7518   6.9126   7.1968
     7.5078   8.7040   9.4395   9.5075  10.0595  10.7206

          k = 0.3750 0.3750 0.3750 (  1082 PWs)   bands (ev):

   -44.6232 -21.3082 -21.2851 -21.2849  -5.3020  -5.1358  -5.1156  -3.9056
    -3.9019  -3.6147  -3.5505  -3.5408   4.1742   5.9398   5.9625   6.7130
     7.0714   7.0868   8.0000  10.6696  10.6994  10.7662

          k = 0.3750-0.1250 0.1250 (  1095 PWs)   bands (ev):

   -44.6258 -21.2912 -21.2539 -21.2313  -5.9229  -5.1345  -5.0667  -4.0189
    -3.9525  -3.9407  -3.8747  -3.7430   3.9263   6.8660   7.3605   7.8586
     8.4555   8.7790   9.3653   9.9431  10.0872  10.8710

          k = 0.3750-0.3750 0.1250 (  1087 PWs)   bands (ev):

   -44.6245 -21.2881 -21.2871 -21.2518  -5.7247  -4.9900  -4.9177  -3.9905
    -3.9484  -3.8922  -3.8042  -3.6628   3.5627   6.8301   6.8688   7.1893
     7.4952   8.6894   9.4826   9.5017  10.0444  10.7568

     highest occupied level (ev):    10.9022

!    total energy              =    -333.18328805 Ry
     estimated scf accuracy    <          6.8E-11 Ry

     The total energy is the sum of the following terms:
     one-electron contribution =     -76.55707165 Ry
     hartree contribution      =      66.27468263 Ry
     xc contribution           =     -49.65264166 Ry
     ewald contribution        =    -273.24825736 Ry

     convergence has been achieved in  10 iterations

     Forces acting on atoms (cartesian axes, Ry/au):

     atom    1 type  2   force =     0.00000000    0.00000000   -0.01101065
     atom    2 type  3   force =     0.00000000    0.00000000    0.01547865
     atom    3 type  1   force =     0.00000000    0.00000000   -0.00307388
     atom    4 type  1   force =     0.00000000    0.00000000   -0.00307388
     atom    5 type  1   force =     0.00000000    0.00000000    0.00167977

     Total force =     0.004660     Total SCF correction =     0.000003


     Computing stress (Cartesian axis) and pressure

          total   stress  (Ry/bohr**3)                   (kbar)     P=      -11.82
  -0.00009803   0.00000000   0.00000000          -14.42        0.00        0.00
   0.00000000  -0.00009803   0.00000000            0.00      -14.42        0.00
   0.00000000   0.00000000  -0.00004502            0.00        0.00       -6.62

     Energy error            =      2.6E-05 Ry
     Gradient error          =      3.1E-03 Ry/Bohr

     number of scf cycles    =   5
     number of bfgs steps    =   4

     energy             old  =    -333.1832621022 Ry
     energy             new  =    -333.1832880482 Ry

     CASE: energy            _new < energy            _old

     new trust radius        =       0.0102681699 bohr
     new conv_thr            =       0.0000000010 Ry


ATOMIC_POSITIONS (angstrom)
Pb               0.0000000000        0.0000000000        0.0000000000    0   0   0
Ti               1.9375000000        1.9375000000        1.8406200000    0   0   0
O                0.0000000000        1.9375000000        1.9270950224
O                1.9375000000        0.0000000000        1.9270950224
O                1.9375000000        1.9375000000       -0.0272013081


     Message from routine punch:
     Nothing written, as per user request (disk_io='none')
     NEW-OLD atomic charge density approx. for the potential

     total cpu time spent up to now is       30.6 secs

     Self-consistent Calculation

     iteration #  1     ecut=    30.00 Ry     beta= 0.70
     Davidson diagonalization with overlap
     ethr =  1.00E-06,  avg # of iterations =  4.5

     Threshold (ethr) on eigenvalues was too large:
     Diagonalizing with lowered threshold

     Davidson diagonalization with overlap
     ethr =  5.21E-08,  avg # of iterations =  4.3

     total cpu time spent up to now is       31.3 secs

     total energy              =    -333.18331780 Ry
     estimated scf accuracy    <       0.00002498 Ry

     iteration #  2     ecut=    30.00 Ry     beta= 0.70
     Davidson diagonalization with overlap
     ethr =  5.68E-08,  avg # of iterations =  3.8

     total cpu time spent up to now is       31.7 secs

     total energy              =    -333.18331943 Ry
     estimated scf accuracy    <       0.00000687 Ry

     iteration #  3     ecut=    30.00 Ry     beta= 0.70
     Davidson diagonalization with overlap
     ethr =  1.56E-08,  avg # of iterations =  5.2

     total cpu time spent up to now is       32.2 secs

     total energy              =    -333.18332097 Ry
     estimated scf accuracy    <       0.00000611 Ry

     iteration #  4     ecut=    30.00 Ry     beta= 0.70
     Davidson diagonalization with overlap
     ethr =  1.39E-08,  avg # of iterations =  3.5

     total cpu time spent up to now is       32.6 secs

     total energy              =    -333.18332194 Ry
     estimated scf accuracy    <       0.00000014 Ry

     iteration #  5     ecut=    30.00 Ry     beta= 0.70
     Davidson diagonalization with overlap
     ethr =  3.19E-10,  avg # of iterations =  6.3

     total cpu time spent up to now is       33.0 secs

     total energy              =    -333.18332209 Ry
     estimated scf accuracy    <       0.00000046 Ry

     iteration #  6     ecut=    30.00 Ry     beta= 0.70
     Davidson diagonalization with overlap
     ethr =  3.19E-10,  avg # of iterations =  4.5

     total cpu time spent up to now is       33.4 secs

     total energy              =    -333.18332211 Ry
     estimated scf accuracy    <       0.00000008 Ry

     iteration #  7     ecut=    30.00 Ry     beta= 0.70
     Davidson diagonalization with overlap
     ethr =  1.91E-10,  avg # of iterations =  3.7

     total cpu time spent up to now is       33.8 secs

     total energy              =    -333.18332211 Ry
     estimated scf accuracy    <       0.00000001 Ry

     iteration #  8     ecut=    30.00 Ry     beta= 0.70
     Davidson diagonalization with overlap
     ethr =  3.23E-11,  avg # of iterations =  5.5

     total cpu time spent up to now is       34.3 secs

     total energy              =    -333.18332212 Ry
     estimated scf accuracy    <          6.5E-09 Ry

     iteration #  9     ecut=    30.00 Ry     beta= 0.70
     Davidson diagonalization with overlap
     ethr =  1.47E-11,  avg # of iterations =  1.5

     total cpu time spent up to now is       34.6 secs

     total energy              =    -333.18332212 Ry
     estimated scf accuracy    <          2.9E-09 Ry

     iteration # 10     ecut=    30.00 Ry     beta= 0.70
     Davidson diagonalization with overlap
     ethr =  6.58E-12,  avg # of iterations =  3.8

     total cpu time spent up to now is       35.0 secs

     End of self-consistent calculation

          k = 0.1250 0.1250 0.1250 (  1090 PWs)   bands (ev):

   -44.6317 -21.2577 -21.2388 -21.2378  -6.3271  -5.2599  -5.2362  -3.9585
    -3.9559  -3.9430  -3.7752  -3.7723   4.6616   7.3074   7.3188   8.0905
     9.1087   9.1448   9.8691   9.8840  10.0109  10.1611

          k = 0.1250 0.1250 0.3750 (  1095 PWs)   bands (ev):

   -44.6305 -21.3157 -21.2366 -21.2357  -5.9056  -5.1142  -5.0963  -4.0194
    -3.9536  -3.9393  -3.8708  -3.7447   3.9185   6.8379   7.3059   7.8552
     8.4798   8.7200   9.4151   9.9394  10.1474  10.9000

          k = 0.1250 0.3750 0.3750 (  1087 PWs)   bands (ev):

   -44.6292 -21.3122 -21.2924 -21.2340  -5.6903  -5.0079  -4.9326  -3.9929
    -3.9486  -3.8950  -3.8047  -3.6496   3.5546   6.7582   6.9062   7.1962
     7.5069   8.7018   9.4427   9.5060  10.0601  10.7231

          k = 0.3750 0.3750 0.3750 (  1082 PWs)   bands (ev):

   -44.6279 -21.3097 -21.2900 -21.2898  -5.3016  -5.1347  -5.1171  -3.9046
    -3.9013  -3.6137  -3.5495  -3.5407   4.1744   5.9419   5.9612   6.7140
     7.0677   7.0807   8.0008  10.6731  10.6997  10.7663

          k = 0.3750-0.1250 0.1250 (  1095 PWs)   bands (ev):

   -44.6305 -21.2961 -21.2554 -21.2361  -5.9224  -5.1344  -5.0684  -4.0182
    -3.9518  -3.9400  -3.8737  -3.7424   3.9270   6.8633   7.3594   7.8585
     8.4563   8.7763   9.3698   9.9449  10.0920  10.8723

          k = 0.3750-0.3750 0.1250 (  1087 PWs)   bands (ev):

   -44.6292 -21.2930 -21.2920 -21.2533  -5.7219  -4.9916  -4.9196  -3.9899
    -3.9476  -3.8916  -3.8035  -3.6613   3.5622   6.8286   6.8662   7.1903
     7.4961   8.6891   9.4812   9.5013  10.0460  10.7548

     highest occupied level (ev):    10.9000

!    total energy              =    -333.18332212 Ry
     estimated scf accuracy    <          2.8E-11 Ry

     The total energy is the sum of the following terms:
     one-electron contribution =     -76.54506573 Ry
     hartree contribution      =      66.26747394 Ry
     xc contribution           =     -49.65182043 Ry
     ewald contribution        =    -273.25390990 Ry

     convergence has been achieved in  10 iterations

     Forces acting on atoms (cartesian axes, Ry/au):

     atom    1 type  2   force =     0.00000000    0.00000000   -0.01074211
     atom    2 type  3   force =     0.00000000    0.00000000    0.01471255
     atom    3 type  1   force =     0.00000000    0.00000000   -0.00339876
     atom    4 type  1   force =     0.00000000    0.00000000   -0.00339876
     atom    5 type  1   force =     0.00000000    0.00000000    0.00282709

     Total force =     0.005576     Total SCF correction =     0.000001


     Computing stress (Cartesian axis) and pressure

          total   stress  (Ry/bohr**3)                   (kbar)     P=      -12.30
  -0.00009817   0.00000000   0.00000000          -14.44        0.00        0.00
   0.00000000  -0.00009817   0.00000000            0.00      -14.44        0.00
   0.00000000   0.00000000  -0.00005456            0.00        0.00       -8.03

     Energy error            =      3.4E-05 Ry
     Gradient error          =      3.4E-03 Ry/Bohr

     number of scf cycles    =   6
     number of bfgs steps    =   5

     energy             old  =    -333.1832880482 Ry
     energy             new  =    -333.1833221177 Ry

     CASE: energy            _new < energy            _old

     new trust radius        =       0.0154022549 bohr
     new conv_thr            =       0.0000000010 Ry


ATOMIC_POSITIONS (angstrom)
Pb               0.0000000000        0.0000000000        0.0000000000    0   0   0
Ti               1.9375000000        1.9375000000        1.8406200000    0   0   0
O                0.0000000000        1.9375000000        1.9189445001
O                1.9375000000        0.0000000000        1.9189445001
O                1.9375000000        1.9375000000       -0.0350876750


     Message from routine punch:
     Nothing written, as per user request (disk_io='none')
     NEW-OLD atomic charge density approx. for the potential

     total cpu time spent up to now is       36.6 secs

     Self-consistent Calculation

     iteration #  1     ecut=    30.00 Ry     beta= 0.70
     Davidson diagonalization with overlap
     ethr =  1.00E-06,  avg # of iterations =  5.3

     total cpu time spent up to now is       37.2 secs

     total energy              =    -333.18337200 Ry
     estimated scf accuracy    <       0.00005763 Ry

     iteration #  2     ecut=    30.00 Ry     beta= 0.70
     Davidson diagonalization with overlap
     ethr =  1.31E-07,  avg # of iterations =  3.7

     total cpu time spent up to now is       37.6 secs

     total energy              =    -333.18338008 Ry
     estimated scf accuracy    <       0.00000750 Ry

     iteration #  3     ecut=    30.00 Ry     beta= 0.70
     Davidson diagonalization with overlap
     ethr =  1.71E-08,  avg # of iterations =  5.7

     total cpu time spent up to now is       38.2 secs

     total energy              =    -333.18338106 Ry
     estimated scf accuracy    <       0.00001010 Ry

     iteration #  4     ecut=    30.00 Ry     beta= 0.70
     Davidson diagonalization with overlap
     ethr =  1.71E-08,  avg # of iterations =  4.7

     total cpu time spent up to now is       38.7 secs

     total energy              =    -333.18338325 Ry
     estimated scf accuracy    <       0.00000040 Ry

     iteration #  5     ecut=    30.00 Ry     beta= 0.70
     Davidson diagonalization with overlap
     ethr =  9.20E-10,  avg # of iterations =  4.3

     total cpu time spent up to now is       39.1 secs

     total energy              =    -333.18338331 Ry
     estimated scf accuracy    <       0.00000022 Ry

     iteration #  6     ecut=    30.00 Ry     beta= 0.70
     Davidson diagonalization with overlap
     ethr =  5.08E-10,  avg # of iterations =  3.3

     total cpu time spent up to now is       39.5 secs

     total energy              =    -333.18338334 Ry
     estimated scf accuracy    <       0.00000001 Ry

     iteration #  7     ecut=    30.00 Ry     beta= 0.70
     Davidson diagonalization with overlap
     ethr =  2.89E-11,  avg # of iterations =  6.0

     total cpu time spent up to now is       40.0 secs

     total energy              =    -333.18338336 Ry
     estimated scf accuracy    <       0.00000002 Ry

     iteration #  8     ecut=    30.00 Ry     beta= 0.70
     Davidson diagonalization with overlap
     ethr =  2.89E-11,  avg # of iterations =  1.7

     total cpu time spent up to now is       40.4 secs

     total energy              =    -333.18338335 Ry
     estimated scf accuracy    <          7.3E-09 Ry

     iteration #  9     ecut=    30.00 Ry     beta= 0.70
     Davidson diagonalization with overlap
     ethr =  1.65E-11,  avg # of iterations =  4.2

     total cpu time spent up to now is       40.8 secs

     End of self-consistent calculation

          k = 0.1250 0.1250 0.1250 (  1090 PWs)   bands (ev):

   -44.6380 -21.2598 -21.2454 -21.2444  -6.3277  -5.2583  -5.2403  -3.9572
    -3.9550  -3.9420  -3.7742  -3.7715   4.6627   7.3087   7.3175   8.0917
     9.1166   9.1468   9.8884   9.8892  10.0048  10.1537

          k = 0.1250 0.1250 0.3750 (  1095 PWs)   bands (ev):

   -44.6368 -21.3178 -21.2432 -21.2423  -5.9088  -5.1188  -5.0925  -4.0181
    -3.9522  -3.9383  -3.8699  -3.7434   3.9223   6.8393   7.3149   7.8550
     8.4746   8.7271   9.4120   9.9433  10.1424  10.8966

          k = 0.1250 0.3750 0.3750 (  1087 PWs)   bands (ev):

   -44.6355 -21.3142 -21.2991 -21.2406  -5.6935  -5.0059  -4.9332  -3.9916
    -3.9475  -3.8937  -3.8036  -3.6492   3.5562   6.7681   6.8961   7.1951
     7.5056   8.6984   9.4463   9.5039  10.0607  10.7266

          k = 0.3750 0.3750 0.3750 (  1082 PWs)   bands (ev):

   -44.6342 -21.3117 -21.2967 -21.2964  -5.3010  -5.1331  -5.1195  -3.9033
    -3.9005  -3.6124  -3.5480  -3.5405   4.1743   5.9447   5.9590   6.7157
     7.0618   7.0713   8.0021  10.6780  10.6995  10.7665

          k = 0.3750-0.1250 0.1250 (  1095 PWs)   bands (ev):

   -44.6368 -21.3027 -21.2575 -21.2427  -5.9218  -5.1345  -5.0711  -4.0172
    -3.9507  -3.9389  -3.8720  -3.7415   3.9279   6.8592   7.3575   7.8585
     8.4574   8.7720   9.3756   9.9473  10.0987  10.8739

          k = 0.3750-0.3750 0.1250 (  1087 PWs)   bands (ev):

   -44.6355 -21.2996 -21.2986 -21.2554  -5.7178  -4.9942  -4.9228  -3.9891
    -3.9464  -3.8905  -3.8024  -3.6592   3.5611   6.8262   6.8620   7.1911
     7.4967   8.6887   9.4786   9.5006  10.0486  10.7515

     highest occupied level (ev):    10.8966

!    total energy              =    -333.18338336 Ry
     estimated scf accuracy    <          5.8E-10 Ry

     The total energy is the sum of the following terms:
     one-electron contribution =     -76.53792457 Ry
     hartree contribution      =      66.26232349 Ry
     xc contribution           =     -49.65091016 Ry
     ewald contribution        =    -273.25687212 Ry

     convergence has been achieved in   9 iterations

     Forces acting on atoms (cartesian axes, Ry/au):

     atom    1 type  2   force =     0.00000000    0.00000000   -0.01024390
     atom    2 type  3   force =     0.00000000    0.00000000    0.01374437
     atom    3 type  1   force =     0.00000000    0.00000000   -0.00369016
     atom    4 type  1   force =     0.00000000    0.00000000   -0.00369016
     atom    5 type  1   force =     0.00000000    0.00000000    0.00387986

     Total force =     0.006503     Total SCF correction =     0.000006


     Computing stress (Cartesian axis) and pressure

          total   stress  (Ry/bohr**3)                   (kbar)     P=      -12.79
  -0.00009737   0.00000000   0.00000000          -14.32        0.00        0.00
   0.00000000  -0.00009737   0.00000000            0.00      -14.32        0.00
   0.00000000   0.00000000  -0.00006603            0.00        0.00       -9.71

     Energy error            =      6.1E-05 Ry
     Gradient error          =      3.9E-03 Ry/Bohr

     number of scf cycles    =   7
     number of bfgs steps    =   6

     energy             old  =    -333.1833221177 Ry
     energy             new  =    -333.1833833553 Ry

     CASE: energy            _new < energy            _old

     new trust radius        =       0.0231033823 bohr
     new conv_thr            =       0.0000000010 Ry


ATOMIC_POSITIONS (angstrom)
Pb               0.0000000000        0.0000000000        0.0000000000    0   0   0
Ti               1.9375000000        1.9375000000        1.8406200000    0   0   0
O                0.0000000000        1.9375000000        1.9067187167
O                1.9375000000        0.0000000000        1.9067187167
O                1.9375000000        1.9375000000       -0.0458461764


     Message from routine punch:
     Nothing written, as per user request (disk_io='none')
     NEW-OLD atomic charge density approx. for the potential

     total cpu time spent up to now is       42.3 secs

     Self-consistent Calculation

     iteration #  1     ecut=    30.00 Ry     beta= 0.70
     Davidson diagonalization with overlap
     ethr =  1.00E-06,  avg # of iterations =  6.7

     total cpu time spent up to now is       42.9 secs

     total energy              =    -333.18345218 Ry
     estimated scf accuracy    <       0.00012106 Ry

     iteration #  2     ecut=    30.00 Ry     beta= 0.70
     Davidson diagonalization with overlap
     ethr =  2.75E-07,  avg # of iterations =  2.8

     total cpu time spent up to now is       43.3 secs

     total energy              =    -333.18346604 Ry
     estimated scf accuracy    <       0.00001484 Ry

     iteration #  3     ecut=    30.00 Ry     beta= 0.70
     Davidson diagonalization with overlap
     ethr =  3.37E-08,  avg # of iterations =  4.8

     total cpu time spent up to now is       43.7 secs

     total energy              =    -333.18346816 Ry
     estimated scf accuracy    <       0.00001628 Ry

     iteration #  4     ecut=    30.00 Ry     beta= 0.70
     Davidson diagonalization with overlap
     ethr =  3.37E-08,  avg # of iterations =  4.2

     total cpu time spent up to now is       44.1 secs

     total energy              =    -333.18347175 Ry
     estimated scf accuracy    <       0.00000069 Ry

     iteration #  5     ecut=    30.00 Ry     beta= 0.70
     Davidson diagonalization with overlap
     ethr =  1.58E-09,  avg # of iterations =  5.0

     total cpu time spent up to now is       44.5 secs

     total energy              =    -333.18347188 Ry
     estimated scf accuracy    <       0.00000069 Ry

     iteration #  6     ecut=    30.00 Ry     beta= 0.70
     Davidson diagonalization with overlap
     ethr =  1.56E-09,  avg # of iterations =  3.7

     total cpu time spent up to now is       44.9 secs

     total energy              =    -333.18347195 Ry
     estimated scf accuracy    <       0.00000006 Ry

     iteration #  7     ecut=    30.00 Ry     beta= 0.70
     Davidson diagonalization with overlap
     ethr =  1.26E-10,  avg # of iterations =  5.2

     total cpu time spent up to now is       45.3 secs

     total energy              =    -333.18347199 Ry
     estimated scf accuracy    <       0.00000005 Ry

     iteration #  8     ecut=    30.00 Ry     beta= 0.70
     Davidson diagonalization with overlap
     ethr =  1.08E-10,  avg # of iterations =  1.3

     total cpu time spent up to now is       45.7 secs

     total energy              =    -333.18347198 Ry
     estimated scf accuracy    <       0.00000002 Ry

     iteration #  9     ecut=    30.00 Ry     beta= 0.70
     Davidson diagonalization with overlap
     ethr =  4.81E-11,  avg # of iterations =  3.7

     total cpu time spent up to now is       46.1 secs

     End of self-consistent calculation

          k = 0.1250 0.1250 0.1250 (  1090 PWs)   bands (ev):

   -44.6455 -21.2624 -21.2533 -21.2524  -6.3289  -5.2564  -5.2462  -3.9554
    -3.9536  -3.9404  -3.7728  -3.7699   4.6642   7.3101   7.3158   8.0935
     9.1263   9.1487   9.8941   9.9161   9.9963  10.1421

          k = 0.1250 0.1250 0.3750 (  1095 PWs)   bands (ev):

   -44.6443 -21.3203 -21.2512 -21.2502  -5.9135  -5.1255  -5.0875  -4.0160
    -3.9503  -3.9369  -3.8683  -3.7417   3.9272   6.8413   7.3262   7.8544
     8.4674   8.7358   9.4074   9.9482  10.1353  10.8921

          k = 0.1250 0.3750 0.3750 (  1087 PWs)   bands (ev):

   -44.6430 -21.3167 -21.3071 -21.2486  -5.6981  -5.0042  -4.9338  -3.9897
    -3.9458  -3.8918  -3.8018  -3.6483   3.5584   6.7813   6.8817   7.1934
     7.5037   8.6937   9.4493   9.5016  10.0615  10.7309

          k = 0.3750 0.3750 0.3750 (  1082 PWs)   bands (ev):

   -44.6417 -21.3142 -21.3047 -21.3045  -5.3008  -5.1311  -5.1232  -3.9013
    -3.8991  -3.6105  -3.5458  -3.5398   4.1737   5.9481   5.9558   6.7178
     7.0539   7.0589   8.0046  10.6837  10.6979  10.7671

          k = 0.3750-0.1250 0.1250 (  1095 PWs)   bands (ev):

   -44.6443 -21.3107 -21.2602 -21.2507  -5.9213  -5.1352  -5.0751  -4.0157
    -3.9491  -3.9373  -3.8694  -3.7399   3.9291   6.8535   7.3544   7.8584
     8.4586   8.7661   9.3824   9.9498  10.1069  10.8761

          k = 0.3750-0.3750 0.1250 (  1087 PWs)   bands (ev):

   -44.6430 -21.3076 -21.3067 -21.2580  -5.7124  -4.9982  -4.9277  -3.9879
    -3.9445  -3.8885  -3.8003  -3.6564   3.5593   6.8229   6.8563   7.1916
     7.4971   8.6882   9.4749   9.4995  10.0523  10.7467

     highest occupied level (ev):    10.8921

!    total energy              =    -333.18347199 Ry
     estimated scf accuracy    <          8.9E-10 Ry

     The total energy is the sum of the following terms:
     one-electron contribution =     -76.54058984 Ry
     hartree contribution      =      66.26168893 Ry
     xc contribution           =     -49.65004741 Ry
     ewald contribution        =    -273.25452368 Ry

     convergence has been achieved in   9 iterations

     Forces acting on atoms (cartesian axes, Ry/au):

     atom    1 type  2   force =     0.00000000    0.00000000   -0.00948548
     atom    2 type  3   force =     0.00000000    0.00000000    0.01270361
     atom    3 type  1   force =     0.00000000    0.00000000   -0.00394725
     atom    4 type  1   force =     0.00000000    0.00000000   -0.00394725
     atom    5 type  1   force =     0.00000000    0.00000000    0.00467636

     Total force =     0.007282     Total SCF correction =     0.000012


     Computing stress (Cartesian axis) and pressure

          total   stress  (Ry/bohr**3)                   (kbar)     P=      -13.27
  -0.00009594   0.00000000   0.00000000          -14.11        0.00        0.00
   0.00000000  -0.00009594   0.00000000            0.00      -14.11        0.00
   0.00000000   0.00000000  -0.00007875            0.00        0.00      -11.58

     Energy error            =      8.9E-05 Ry
     Gradient error          =      4.7E-03 Ry/Bohr

     number of scf cycles    =   8
     number of bfgs steps    =   7

     energy             old  =    -333.1833833553 Ry
     energy             new  =    -333.1834719893 Ry

     CASE: energy            _new < energy            _old

     new trust radius        =       0.0346550735 bohr
     new conv_thr            =       0.0000000010 Ry


ATOMIC_POSITIONS (angstrom)
Pb               0.0000000000        0.0000000000        0.0000000000    0   0   0
Ti               1.9375000000        1.9375000000        1.8406200000    0   0   0
O                0.0000000000        1.9375000000        1.8883800416
O                1.9375000000        0.0000000000        1.8883800416
O                1.9375000000        1.9375000000       -0.0613148403


     Message from routine punch:
     Nothing written, as per user request (disk_io='none')
     NEW-OLD atomic charge density approx. for the potential

     total cpu time spent up to now is       47.6 secs

     Self-consistent Calculation

     iteration #  1     ecut=    30.00 Ry     beta= 0.70
     Davidson diagonalization with overlap
     ethr =  1.00E-06,  avg # of iterations =  7.7

     total cpu time spent up to now is       48.2 secs

     total energy              =    -333.18357367 Ry
     estimated scf accuracy    <       0.00025924 Ry

     iteration #  2     ecut=    30.00 Ry     beta= 0.70
     Davidson diagonalization with overlap
     ethr =  5.89E-07,  avg # of iterations =  2.3

     total cpu time spent up to now is       48.6 secs

     total energy              =    -333.18360654 Ry
     estimated scf accuracy    <       0.00001803 Ry

     iteration #  3     ecut=    30.00 Ry     beta= 0.70
     Davidson diagonalization with overlap
     ethr =  4.10E-08,  avg # of iterations =  4.3

     total cpu time spent up to now is       49.0 secs

     total energy              =    -333.18360955 Ry
     estimated scf accuracy    <       0.00000996 Ry

     iteration #  4     ecut=    30.00 Ry     beta= 0.70
     Davidson diagonalization with overlap
     ethr =  2.26E-08,  avg # of iterations =  4.5

     total cpu time spent up to now is       49.4 secs

     total energy              =    -333.18361195 Ry
     estimated scf accuracy    <       0.00000276 Ry

     iteration #  5     ecut=    30.00 Ry     beta= 0.70
     Davidson diagonalization with overlap
     ethr =  6.26E-09,  avg # of iterations =  3.7

     total cpu time spent up to now is       49.8 secs

     total energy              =    -333.18361247 Ry
     estimated scf accuracy    <       0.00000010 Ry

     iteration #  6     ecut=    30.00 Ry     beta= 0.70
     Davidson diagonalization with overlap
     ethr =  2.25E-10,  avg # of iterations =  5.8

     total cpu time spent up to now is       50.3 secs

     total energy              =    -333.18361253 Ry
     estimated scf accuracy    <       0.00000022 Ry

     iteration #  7     ecut=    30.00 Ry     beta= 0.70
     Davidson diagonalization with overlap
     ethr =  2.25E-10,  avg # of iterations =  4.5

     total cpu time spent up to now is       50.7 secs

     total energy              =    -333.18361254 Ry
     estimated scf accuracy    <       0.00000002 Ry

     iteration #  8     ecut=    30.00 Ry     beta= 0.70
     Davidson diagonalization with overlap
     ethr =  4.90E-11,  avg # of iterations =  4.7

     total cpu time spent up to now is       51.1 secs

     total energy              =    -333.18361255 Ry
     estimated scf accuracy    <          2.1E-09 Ry

     iteration #  9     ecut=    30.00 Ry     beta= 0.70
     Davidson diagonalization with overlap
     ethr =  4.80E-12,  avg # of iterations =  3.7

     total cpu time spent up to now is       51.5 secs

     End of self-consistent calculation

          k = 0.1250 0.1250 0.1250 (  1090 PWs)   bands (ev):

   -44.6543 -21.2657 -21.2625 -21.2617  -6.3313  -5.2549  -5.2540  -3.9525
    -3.9513  -3.9378  -3.7706  -3.7667   4.6661   7.3109   7.3139   8.0958
     9.1372   9.1497   9.9003   9.9503   9.9849  10.1253

          k = 0.1250 0.1250 0.3750 (  1095 PWs)   bands (ev):

   -44.6530 -21.3234 -21.2606 -21.2596  -5.9207  -5.1355  -5.0810  -4.0125
    -3.9472  -3.9344  -3.8649  -3.7391   3.9334   6.8441   7.3389   7.8525
     8.4584   8.7461   9.4004   9.9534  10.1251  10.8867

          k = 0.1250 0.3750 0.3750 (  1087 PWs)   bands (ev):

   -44.6518 -21.3198 -21.3164 -21.2579  -5.7051  -5.0041  -4.9342  -3.9866
    -3.9430  -3.8887  -3.7987  -3.6459   3.5616   6.7989   6.8614   7.1905
     7.5010   8.6869   9.4497   9.5001  10.0629  10.7356

          k = 0.3750 0.3750 0.3750 (  1082 PWs)   bands (ev):

   -44.6505 -21.3173 -21.3141 -21.3138  -5.3017  -5.1291  -5.1284  -3.8981
    -3.8968  -3.6079  -3.5422  -3.5378   4.1717   5.9509   5.9523   6.7195
     7.0435   7.0443   8.0098  10.6901  10.6937  10.7681

          k = 0.3750-0.1250 0.1250 (  1095 PWs)   bands (ev):

   -44.6530 -21.3201 -21.2634 -21.2600  -5.9216  -5.1370  -5.0813  -4.0133
    -3.9465  -3.9345  -3.8647  -3.7371   3.9305   6.8457   7.3498   7.8581
     8.4590   8.7585   9.3899   9.9518  10.1156  10.8793

          k = 0.3750-0.3750 0.1250 (  1087 PWs)   bands (ev):

   -44.6518 -21.3170 -21.3161 -21.2612  -5.7057  -5.0050  -4.9359  -3.9857
    -3.9411  -3.8846  -3.7963  -3.6523   3.5561   6.8180   6.8486   7.1916
     7.4977   8.6881   9.4699   9.4979  10.0577  10.7393

     highest occupied level (ev):    10.8867

!    total energy              =    -333.18361255 Ry
     estimated scf accuracy    <          1.1E-10 Ry

     The total energy is the sum of the following terms:
     one-electron contribution =     -76.56234372 Ry
     hartree contribution      =      66.27018867 Ry
     xc contribution           =     -49.64942991 Ry
     ewald contribution        =    -273.24202759 Ry

     convergence has been achieved in   9 iterations

     Forces acting on atoms (cartesian axes, Ry/au):

     atom    1 type  2   force =     0.00000000    0.00000000   -0.00836440
     atom    2 type  3   force =     0.00000000    0.00000000    0.01169451
     atom    3 type  1   force =     0.00000000    0.00000000   -0.00424210
     atom    4 type  1   force =     0.00000000    0.00000000   -0.00424210
     atom    5 type  1   force =     0.00000000    0.00000000    0.00515409

     Total force =     0.007909     Total SCF correction =     0.000003


     Computing stress (Cartesian axis) and pressure

          total   stress  (Ry/bohr**3)                   (kbar)     P=      -13.66
  -0.00009354   0.00000000   0.00000000          -13.76        0.00        0.00
   0.00000000  -0.00009354   0.00000000            0.00      -13.76        0.00
   0.00000000   0.00000000  -0.00009151            0.00        0.00      -13.46

     Energy error            =      1.4E-04 Ry
     Gradient error          =      5.2E-03 Ry/Bohr

     number of scf cycles    =   9
     number of bfgs steps    =   8

     energy             old  =    -333.1834719893 Ry
     energy             new  =    -333.1836125489 Ry

     CASE: energy            _new < energy            _old


     WARNING: bfgs curvature condition failed, Theta= 0.456
     new trust radius        =       0.0519826102 bohr
     new conv_thr            =       0.0000000014 Ry


ATOMIC_POSITIONS (angstrom)
Pb               0.0000000000        0.0000000000        0.0000000000    0   0   0
Ti               1.9375000000        1.9375000000        1.8406200000    0   0   0
O                0.0000000000        1.9375000000        1.8608720289
O                1.9375000000        0.0000000000        1.8608720289
O                1.9375000000        1.9375000000       -0.0848543858


     Message from routine punch:
     Nothing written, as per user request (disk_io='none')
     NEW-OLD atomic charge density approx. for the potential

     total cpu time spent up to now is       53.2 secs

     Self-consistent Calculation

     iteration #  1     ecut=    30.00 Ry     beta= 0.70
     Davidson diagonalization with overlap
     ethr =  1.00E-06,  avg # of iterations =  9.2

     total cpu time spent up to now is       54.1 secs

     total energy              =    -333.18375850 Ry
     estimated scf accuracy    <       0.00058559 Ry

     iteration #  2     ecut=    30.00 Ry     beta= 0.70
     Davidson diagonalization with overlap
     ethr =  1.33E-06,  avg # of iterations =  2.2

     total cpu time spent up to now is       54.7 secs

     total energy              =    -333.18383138 Ry
     estimated scf accuracy    <       0.00003087 Ry

     iteration #  3     ecut=    30.00 Ry     beta= 0.70
     Davidson diagonalization with overlap
     ethr =  7.02E-08,  avg # of iterations =  4.0

     total cpu time spent up to now is       55.4 secs

     total energy              =    -333.18383604 Ry
     estimated scf accuracy    <       0.00001459 Ry

     iteration #  4     ecut=    30.00 Ry     beta= 0.70
     Davidson diagonalization with overlap
     ethr =  3.32E-08,  avg # of iterations =  4.8

     total cpu time spent up to now is       56.0 secs

     total energy              =    -333.18383934 Ry
     estimated scf accuracy    <       0.00000561 Ry

     iteration #  5     ecut=    30.00 Ry     beta= 0.70
     Davidson diagonalization with overlap
     ethr =  1.28E-08,  avg # of iterations =  4.3

     total cpu time spent up to now is       56.6 secs

     total energy              =    -333.18384053 Ry
     estimated scf accuracy    <       0.00000034 Ry

     iteration #  6     ecut=    30.00 Ry     beta= 0.70
     Davidson diagonalization with overlap
     ethr =  7.72E-10,  avg # of iterations =  4.7

     total cpu time spent up to now is       57.2 secs

     total energy              =    -333.18384061 Ry
     estimated scf accuracy    <       0.00000022 Ry

     iteration #  7     ecut=    30.00 Ry     beta= 0.70
     Davidson diagonalization with overlap
     ethr =  5.07E-10,  avg # of iterations =  3.7

     total cpu time spent up to now is       57.8 secs

     total energy              =    -333.18384062 Ry
     estimated scf accuracy    <       0.00000003 Ry

     iteration #  8     ecut=    30.00 Ry     beta= 0.70
     Davidson diagonalization with overlap
     ethr =  6.60E-11,  avg # of iterations =  5.2

     total cpu time spent up to now is       58.5 secs

     total energy              =    -333.18384064 Ry
     estimated scf accuracy    <       0.00000004 Ry

     iteration #  9     ecut=    30.00 Ry     beta= 0.70
     Davidson diagonalization with overlap
     ethr =  6.60E-11,  avg # of iterations =  1.5

     total cpu time spent up to now is       59.0 secs

     total energy              =    -333.18384063 Ry
     estimated scf accuracy    <       0.00000002 Ry

     iteration # 10     ecut=    30.00 Ry     beta= 0.70
     Davidson diagonalization with overlap
     ethr =  3.74E-11,  avg # of iterations =  3.8

     total cpu time spent up to now is       59.6 secs

     End of self-consistent calculation

          k = 0.1250 0.1250 0.1250 (  1090 PWs)   bands (ev):

   -44.6634 -21.2728 -21.2716 -21.2693  -6.3363  -5.2679  -5.2512  -3.9476
    -3.9470  -3.9328  -3.7668  -3.7594   4.6686   7.3094   7.3116   8.0986
     9.1467   9.1483   9.9036   9.9714   9.9788  10.1115

          k = 0.1250 0.1250 0.3750 (  1095 PWs)   bands (ev):

   -44.6622 -21.3273 -21.2705 -21.2695  -5.9321  -5.1506  -5.0728  -4.0063
    -3.9418  -3.9296  -3.8575  -3.7347   3.9408   6.8477   7.3484   7.8467
     8.4498   8.7558   9.3900   9.9565  10.1109  10.8820

          k = 0.1250 0.3750 0.3750 (  1087 PWs)   bands (ev):

   -44.6610 -21.3265 -21.3236 -21.2678  -5.7157  -5.0090  -4.9339  -3.9812
    -3.9380  -3.8831  -3.7929  -3.6400   3.5664   6.8134   6.8398   7.1854
     7.4969   8.6774   9.4441   9.5003  10.0664  10.7390

          k = 0.3750 0.3750 0.3750 (  1082 PWs)   bands (ev):

   -44.6597 -21.3241 -21.3238 -21.3212  -5.3054  -5.1391  -5.1251  -3.8927
    -3.8921  -3.6039  -3.5361  -3.5328   4.1670   5.9436   5.9568   6.7187
     7.0273   7.0346   8.0213  10.6846  10.6951  10.7686

          k = 0.3750-0.1250 0.1250 (  1095 PWs)   bands (ev):

   -44.6622 -21.3301 -21.2701 -21.2673  -5.9240  -5.1415  -5.0912  -4.0088
    -3.9416  -3.9293  -3.8557  -3.7311   3.9323   6.8356   7.3429   7.8570
     8.4566   8.7500   9.3956   9.9513  10.1211  10.8845

          k = 0.3750-0.3750 0.1250 (  1087 PWs)   bands (ev):

   -44.6609 -21.3269 -21.3260 -21.2652  -5.6984  -5.0169  -4.9502  -3.9814
    -3.9345  -3.8762  -3.7878  -3.6461   3.5504   6.8103   6.8391   7.1910
     7.4994   8.6886   9.4639   9.4948  10.0656  10.7277

     highest occupied level (ev):    10.8845

!    total energy              =    -333.18384064 Ry
     estimated scf accuracy    <          4.0E-10 Ry

     The total energy is the sum of the following terms:
     one-electron contribution =     -76.62574509 Ry
     hartree contribution      =      66.29944926 Ry
     xc contribution           =     -49.64973060 Ry
     ewald contribution        =    -273.20781421 Ry

     convergence has been achieved in  10 iterations

     Forces acting on atoms (cartesian axes, Ry/au):

     atom    1 type  2   force =     0.00000000    0.00000000   -0.00682556
     atom    2 type  3   force =     0.00000000    0.00000000    0.01092537
     atom    3 type  1   force =     0.00000000    0.00000000   -0.00475339
     atom    4 type  1   force =     0.00000000    0.00000000   -0.00475339
     atom    5 type  1   force =     0.00000000    0.00000000    0.00540697

     Total force =     0.008627     Total SCF correction =     0.000004


     Computing stress (Cartesian axis) and pressure

          total   stress  (Ry/bohr**3)                   (kbar)     P=      -13.58
  -0.00008901   0.00000000   0.00000000          -13.09        0.00        0.00
   0.00000000  -0.00008901   0.00000000            0.00      -13.09        0.00
   0.00000000   0.00000000  -0.00009893            0.00        0.00      -14.55

     Energy error            =      2.3E-04 Ry
     Gradient error          =      5.4E-03 Ry/Bohr

     number of scf cycles    =  10
     number of bfgs steps    =   9

     energy             old  =    -333.1836125489 Ry
     energy             new  =    -333.1838406363 Ry

     CASE: energy            _new < energy            _old


     WARNING: bfgs curvature condition failed, Theta= 0.493
     new trust radius        =       0.0263742270 bohr
     new conv_thr            =       0.0000000023 Ry


ATOMIC_POSITIONS (angstrom)
Pb               0.0000000000        0.0000000000        0.0000000000    0   0   0
Ti               1.9375000000        1.9375000000        1.8406200000    0   0   0
O                0.0000000000        1.9375000000        1.8469153890
O                1.9375000000        0.0000000000        1.8469153890
O                1.9375000000        1.9375000000       -0.0961326335


     Message from routine punch:
     Nothing written, as per user request (disk_io='none')
     NEW-OLD atomic charge density approx. for the potential

     total cpu time spent up to now is       61.7 secs

     Self-consistent Calculation

     iteration #  1     ecut=    30.00 Ry     beta= 0.70
     Davidson diagonalization with overlap
     ethr =  1.00E-06,  avg # of iterations =  6.8

     total cpu time spent up to now is       62.4 secs

     total energy              =    -333.18396503 Ry
     estimated scf accuracy    <       0.00014009 Ry

     iteration #  2     ecut=    30.00 Ry     beta= 0.70
     Davidson diagonalization with overlap
     ethr =  3.18E-07,  avg # of iterations =  2.2

     total cpu time spent up to now is       62.9 secs

     total energy              =    -333.18398268 Ry
     estimated scf accuracy    <       0.00000475 Ry

     iteration #  3     ecut=    30.00 Ry     beta= 0.70
     Davidson diagonalization with overlap
     ethr =  1.08E-08,  avg # of iterations =  4.3

     total cpu time spent up to now is       63.5 secs

     total energy              =    -333.18398394 Ry
     estimated scf accuracy    <       0.00000099 Ry

     iteration #  4     ecut=    30.00 Ry     beta= 0.70
     Davidson diagonalization with overlap
     ethr =  2.24E-09,  avg # of iterations =  4.8

     total cpu time spent up to now is       64.1 secs

     total energy              =    -333.18398409 Ry
     estimated scf accuracy    <       0.00000088 Ry

     iteration #  5     ecut=    30.00 Ry     beta= 0.70
     Davidson diagonalization with overlap
     ethr =  2.01E-09,  avg # of iterations =  4.0

     total cpu time spent up to now is       64.5 secs

     total energy              =    -333.18398429 Ry
     estimated scf accuracy    <       0.00000005 Ry

     iteration #  6     ecut=    30.00 Ry     beta= 0.70
     Davidson diagonalization with overlap
     ethr =  1.05E-10,  avg # of iterations =  4.3

     total cpu time spent up to now is       65.0 secs

     total energy              =    -333.18398430 Ry
     estimated scf accuracy    <       0.00000002 Ry

     iteration #  7     ecut=    30.00 Ry     beta= 0.70
     Davidson diagonalization with overlap
     ethr =  4.52E-11,  avg # of iterations =  3.7

     total cpu time spent up to now is       65.6 secs

     total energy              =    -333.18398430 Ry
     estimated scf accuracy    <          3.6E-09 Ry

     iteration #  8     ecut=    30.00 Ry     beta= 0.70
     Davidson diagonalization with overlap
     ethr =  8.27E-12,  avg # of iterations =  4.8

     total cpu time spent up to now is       66.0 secs

     End of self-consistent calculation

          k = 0.1250 0.1250 0.1250 (  1090 PWs)   bands (ev):

   -44.6664 -21.2760 -21.2748 -21.2712  -6.3394  -5.2743  -5.2504  -3.9448
    -3.9444  -3.9298  -3.7646  -3.7547   4.6697   7.3072   7.3109   8.0995
[...]

          k = 0.1250 0.1250 0.1250 (  1090 PWs)   bands (ev):

   -44.6560 -21.2907 -21.2637 -21.2628  -6.4262  -5.3672  -5.2478  -3.8772
    -3.8764  -3.8517  -3.7078  -3.6189   4.6913   7.1902   7.3025   8.0541
     9.0526   9.0738   9.6689   9.7704   9.9453  10.2621

          k = 0.1250 0.1250 0.3750 (  1095 PWs)   bands (ev):

   -44.6547 -21.3486 -21.2616 -21.2607  -6.0479  -5.2692  -5.0524  -3.9208
    -3.8630  -3.8500  -3.7126  -3.6711   3.9676   6.8355   7.1150   7.7017
     8.5649   8.6681   9.3555   9.8385  10.0243  10.9595

          k = 0.1250 0.3750 0.3750 (  1087 PWs)   bands (ev):

   -44.6534 -21.3450 -21.3166 -21.2590  -5.8123  -5.1452  -4.9546  -3.9028
    -3.8589  -3.8020  -3.6964  -3.5143   3.6148   6.5940   6.9457   7.1352
     7.4328   8.6356   9.3858   9.4437  10.1552  10.6686

          k = 0.3750 0.3750 0.3750 (  1082 PWs)   bands (ev):

   -44.6522 -21.3424 -21.3142 -21.3141  -5.4073  -5.2584  -5.1329  -3.8142
    -3.8120  -3.5513  -3.4481  -3.4236   4.0785   5.8999   5.9502   6.6158
     7.1188   7.1292   8.2291  10.5790  10.6188  10.7038

          k = 0.3750-0.1250 0.1250 (  1095 PWs)   bands (ev):

   -44.6547 -21.3205 -21.2883 -21.2611  -6.0072  -5.2385  -5.1736  -3.9334
    -3.8672  -3.8459  -3.7238  -3.6189   3.9401   6.8103   7.3093   7.8094
     8.3657   8.7936   9.3215   9.8478   9.9680  10.9263

          k = 0.3750-0.3750 0.1250 (  1087 PWs)   bands (ev):

   -44.6534 -21.3174 -21.3164 -21.2859  -5.7253  -5.1556  -5.1210  -3.9034
    -3.8381  -3.7378  -3.6371  -3.5761   3.4762   6.7487   6.8282   7.2007
     7.5646   8.7188   9.4765   9.4914  10.1269  10.6174

     highest occupied level (ev):    10.9595

!    total energy              =    -333.18570863 Ry
     estimated scf accuracy    <          9.0E-10 Ry

     The total energy is the sum of the following terms:
     one-electron contribution =     -77.81798981 Ry
     hartree contribution      =      66.90354319 Ry
     xc contribution           =     -49.67697985 Ry
     ewald contribution        =    -272.59428215 Ry

     convergence has been achieved in   9 iterations

     Forces acting on atoms (cartesian axes, Ry/au):

     atom    1 type  2   force =     0.00000000    0.00000000    0.00094105
     atom    2 type  3   force =     0.00000000    0.00000000    0.00372443
     atom    3 type  1   force =     0.00000000    0.00000000    0.00399056
     atom    4 type  1   force =     0.00000000    0.00000000    0.00399056
     atom    5 type  1   force =     0.00000000    0.00000000   -0.01264660

     Total force =     0.013849     Total SCF correction =     0.000011


     Computing stress (Cartesian axis) and pressure

          total   stress  (Ry/bohr**3)                   (kbar)     P=       -0.81
  -0.00005489   0.00000000   0.00000000           -8.08        0.00        0.00
   0.00000000  -0.00005489   0.00000000            0.00       -8.08        0.00
   0.00000000   0.00000000   0.00009332            0.00        0.00       13.73

     Energy error            =      1.7E-04 Ry
     Gradient error          =      1.3E-02 Ry/Bohr

     number of scf cycles    =  26
     number of bfgs steps    =  25

     energy             old  =    -333.1855344869 Ry
     energy             new  =    -333.1857086344 Ry

     CASE: energy            _new < energy            _old

     new trust radius        =       0.0190921032 bohr
     new conv_thr            =       0.0000000017 Ry


ATOMIC_POSITIONS (angstrom)
Pb               0.0000000000        0.0000000000        0.0000000000    0   0   0
Ti               1.9375000000        1.9375000000        1.8406200000    0   0   0
O                0.0000000000        1.9375000000        1.6649244407
O                1.9375000000        0.0000000000        1.6649244407
O                1.9375000000        1.9375000000       -0.2117819950


     Message from routine punch:
     Nothing written, as per user request (disk_io='none')
     NEW-OLD atomic charge density approx. for the potential

     total cpu time spent up to now is      143.5 secs

     Self-consistent Calculation

     iteration #  1     ecut=    30.00 Ry     beta= 0.70
     Davidson diagonalization with overlap
     ethr =  1.00E-06,  avg # of iterations =  4.3

     total cpu time spent up to now is      144.0 secs

     total energy              =    -333.18587887 Ry
     estimated scf accuracy    <       0.00007182 Ry

     iteration #  2     ecut=    30.00 Ry     beta= 0.70
     Davidson diagonalization with overlap
     ethr =  1.63E-07,  avg # of iterations =  4.5

     total cpu time spent up to now is      144.4 secs

     total energy              =    -333.18588811 Ry
     estimated scf accuracy    <       0.00004808 Ry

     iteration #  3     ecut=    30.00 Ry     beta= 0.70
     Davidson diagonalization with overlap
     ethr =  1.09E-07,  avg # of iterations =  4.5

     total cpu time spent up to now is      144.8 secs

     total energy              =    -333.18589946 Ry
     estimated scf accuracy    <       0.00001542 Ry

     iteration #  4     ecut=    30.00 Ry     beta= 0.70
     Davidson diagonalization with overlap
     ethr =  3.51E-08,  avg # of iterations =  3.7

     total cpu time spent up to now is      145.2 secs

     total energy              =    -333.18590174 Ry
     estimated scf accuracy    <       0.00000045 Ry

     iteration #  5     ecut=    30.00 Ry     beta= 0.70
     Davidson diagonalization with overlap
     ethr =  1.02E-09,  avg # of iterations =  5.8

     total cpu time spent up to now is      145.7 secs

     total energy              =    -333.18590227 Ry
     estimated scf accuracy    <       0.00000084 Ry

     iteration #  6     ecut=    30.00 Ry     beta= 0.70
     Davidson diagonalization with overlap
     ethr =  1.02E-09,  avg # of iterations =  2.7

     total cpu time spent up to now is      146.1 secs

     total energy              =    -333.18590218 Ry
     estimated scf accuracy    <       0.00000040 Ry

     iteration #  7     ecut=    30.00 Ry     beta= 0.70
     Davidson diagonalization with overlap
     ethr =  9.06E-10,  avg # of iterations =  4.2

     total cpu time spent up to now is      146.5 secs

     total energy              =    -333.18590228 Ry
     estimated scf accuracy    <          9.8E-09 Ry

     iteration #  8     ecut=    30.00 Ry     beta= 0.70
     Davidson diagonalization with overlap
     ethr =  2.24E-11,  avg # of iterations =  4.5

     total cpu time spent up to now is      146.9 secs

     total energy              =    -333.18590227 Ry
     estimated scf accuracy    <       0.00000001 Ry

     iteration #  9     ecut=    30.00 Ry     beta= 0.70
     Davidson diagonalization with overlap
     ethr =  2.24E-11,  avg # of iterations =  4.7

     total cpu time spent up to now is      147.3 secs

     End of self-consistent calculation

          k = 0.1250 0.1250 0.1250 (  1090 PWs)   bands (ev):

   -44.6415 -21.2855 -21.2494 -21.2485  -6.4232  -5.3642  -5.2525  -3.8804
    -3.8794  -3.8553  -3.7115  -3.6221   4.6881   7.1954   7.3036   8.0624
     9.0387   9.0707   9.6491   9.7678   9.9473  10.2539

          k = 0.1250 0.1250 0.3750 (  1095 PWs)   bands (ev):

   -44.6403 -21.3435 -21.2473 -21.2463  -6.0427  -5.2658  -5.0587  -3.9241
    -3.8660  -3.8537  -3.7158  -3.6753   3.9601   6.8363   7.1172   7.7108
     8.5565   8.6583   9.3498   9.8364  10.0280  10.9584

          k = 0.1250 0.3750 0.3750 (  1087 PWs)   bands (ev):

   -44.6390 -21.3399 -21.3025 -21.2447  -5.8082  -5.1417  -4.9604  -3.9061
    -3.8623  -3.8059  -3.6997  -3.5165   3.6117   6.5867   6.9463   7.1407
     7.4337   8.6386   9.3862   9.4307  10.1504  10.6631

          k = 0.3750 0.3750 0.3750 (  1082 PWs)   bands (ev):

   -44.6377 -21.3373 -21.3001 -21.2999  -5.4039  -5.2552  -5.1371  -3.8179
    -3.8148  -3.5563  -3.4516  -3.4255   4.0780   5.8982   5.9465   6.6179
     7.1182   7.1317   8.2251  10.5820  10.6091  10.6963

          k = 0.3750-0.1250 0.1250 (  1095 PWs)   bands (ev):

   -44.6403 -21.3063 -21.2830 -21.2469  -6.0051  -5.2366  -5.1761  -3.9364
    -3.8702  -3.8501  -3.7265  -3.6220   3.9391   6.8121   7.3070   7.8141
     8.3639   8.7920   9.3063   9.8443   9.9595  10.9222

          k = 0.3750-0.3750 0.1250 (  1087 PWs)   bands (ev):

   -44.6390 -21.3033 -21.3022 -21.2806  -5.7277  -5.1538  -5.1170  -3.9061
    -3.8416  -3.7411  -3.6401  -3.5813   3.4768   6.7512   6.8332   7.1940
     7.5574   8.7174   9.4693   9.4858  10.1228  10.6200

     highest occupied level (ev):    10.9584

!    total energy              =    -333.18590228 Ry
     estimated scf accuracy    <          9.6E-11 Ry

     The total energy is the sum of the following terms:
     one-electron contribution =     -77.86794117 Ry
     hartree contribution      =      66.93124671 Ry
     xc contribution           =     -49.68015316 Ry
     ewald contribution        =    -272.56905466 Ry

     convergence has been achieved in   9 iterations

     Forces acting on atoms (cartesian axes, Ry/au):

     atom    1 type  2   force =     0.00000000    0.00000000    0.00086258
     atom    2 type  3   force =     0.00000000    0.00000000    0.00128945
     atom    3 type  1   force =     0.00000000    0.00000000    0.00195639
     atom    4 type  1   force =     0.00000000    0.00000000    0.00195639
     atom    5 type  1   force =     0.00000000    0.00000000   -0.00606481

     Total force =     0.006666     Total SCF correction =     0.000003


     Computing stress (Cartesian axis) and pressure

          total   stress  (Ry/bohr**3)                   (kbar)     P=        1.25
  -0.00004989   0.00000000   0.00000000           -7.34        0.00        0.00
   0.00000000  -0.00004989   0.00000000            0.00       -7.34        0.00
   0.00000000   0.00000000   0.00012518            0.00        0.00       18.42

     Energy error            =      1.9E-04 Ry
     Gradient error          =      6.1E-03 Ry/Bohr

     number of scf cycles    =  27
     number of bfgs steps    =  26

     energy             old  =    -333.1857086344 Ry
     energy             new  =    -333.1859022772 Ry

     CASE: energy            _new < energy            _old

     new trust radius        =       0.0154622959 bohr
     new conv_thr            =       0.0000000019 Ry


ATOMIC_POSITIONS (angstrom)
Pb               0.0000000000        0.0000000000        0.0000000000    0   0   0
Ti               1.9375000000        1.9375000000        1.8406200000    0   0   0
O                0.0000000000        1.9375000000        1.6679226191
O                1.9375000000        0.0000000000        1.6679226191
O                1.9375000000        1.9375000000       -0.2199642896


     Message from routine punch:
     Nothing written, as per user request (disk_io='none')
     NEW-OLD atomic charge density approx. for the potential

     total cpu time spent up to now is      148.8 secs

     Self-consistent Calculation

     iteration #  1     ecut=    30.00 Ry     beta= 0.70
     Davidson diagonalization with overlap
     ethr =  1.00E-06,  avg # of iterations =  4.0

     total cpu time spent up to now is      149.3 secs

     total energy              =    -333.18594248 Ry
     estimated scf accuracy    <       0.00005795 Ry

     iteration #  2     ecut=    30.00 Ry     beta= 0.70
     Davidson diagonalization with overlap
     ethr =  1.32E-07,  avg # of iterations =  4.8

     total cpu time spent up to now is      149.7 secs

     total energy              =    -333.18595088 Ry
     estimated scf accuracy    <       0.00004103 Ry

     iteration #  3     ecut=    30.00 Ry     beta= 0.70
     Davidson diagonalization with overlap
     ethr =  9.33E-08,  avg # of iterations =  4.5

     total cpu time spent up to now is      150.2 secs

     total energy              =    -333.18596076 Ry
     estimated scf accuracy    <       0.00001138 Ry

     iteration #  4     ecut=    30.00 Ry     beta= 0.70
     Davidson diagonalization with overlap
     ethr =  2.59E-08,  avg # of iterations =  3.8

     total cpu time spent up to now is      150.6 secs

     total energy              =    -333.18596253 Ry
     estimated scf accuracy    <       0.00000034 Ry

     iteration #  5     ecut=    30.00 Ry     beta= 0.70
     Davidson diagonalization with overlap
     ethr =  7.78E-10,  avg # of iterations =  5.7

     total cpu time spent up to now is      151.1 secs

     total energy              =    -333.18596292 Ry
     estimated scf accuracy    <       0.00000063 Ry

     iteration #  6     ecut=    30.00 Ry     beta= 0.70
     Davidson diagonalization with overlap
     ethr =  7.78E-10,  avg # of iterations =  3.2

     total cpu time spent up to now is      151.5 secs

     total energy              =    -333.18596287 Ry
     estimated scf accuracy    <       0.00000026 Ry

     iteration #  7     ecut=    30.00 Ry     beta= 0.70
     Davidson diagonalization with overlap
     ethr =  5.96E-10,  avg # of iterations =  4.2

     total cpu time spent up to now is      151.9 secs

     total energy              =    -333.18596293 Ry
     estimated scf accuracy    <          8.4E-09 Ry

     iteration #  8     ecut=    30.00 Ry     beta= 0.70
     Davidson diagonalization with overlap
     ethr =  1.91E-11,  avg # of iterations =  5.2

     total cpu time spent up to now is      152.3 secs

     total energy              =    -333.18596293 Ry
     estimated scf accuracy    <       0.00000001 Ry

     iteration #  9     ecut=    30.00 Ry     beta= 0.70
     Davidson diagonalization with overlap
     ethr =  1.91E-11,  avg # of iterations =  4.3

     total cpu time spent up to now is      152.7 secs

     End of self-consistent calculation

          k = 0.1250 0.1250 0.1250 (  1090 PWs)   bands (ev):

   -44.6282 -21.2805 -21.2363 -21.2353  -6.4190  -5.3602  -5.2567  -3.8845
    -3.8832  -3.8600  -3.7159  -3.6271   4.6847   7.2018   7.3047   8.0710
     9.0275   9.0682   9.6350   9.7678   9.9499  10.2458

          k = 0.1250 0.1250 0.3750 (  1095 PWs)   bands (ev):

   -44.6270 -21.3387 -21.2341 -21.2332  -6.0363  -5.2612  -5.0644  -3.9283
    -3.8701  -3.8583  -3.7209  -3.6802   3.9528   6.8377   7.1225   7.7210
     8.5471   8.6504   9.3455   9.8366  10.0327  10.9561

          k = 0.1250 0.3750 0.3750 (  1087 PWs)   bands (ev):

   -44.6257 -21.3350 -21.2894 -21.2315  -5.8033  -5.1366  -4.9651  -3.9103
    -3.8666  -3.8106  -3.7043  -3.5204   3.6080   6.5826   6.9463   7.1458
     7.4355   8.6416   9.3844   9.4226  10.1444  10.6595

          k = 0.3750 0.3750 0.3750 (  1082 PWs)   bands (ev):

   -44.6244 -21.3324 -21.2870 -21.2869  -5.3992  -5.2506  -5.1406  -3.8225
    -3.8186  -3.5619  -3.4561  -3.4289   4.0786   5.8969   5.9430   6.6218
     7.1156   7.1319   8.2184  10.5861  10.6018  10.6910

          k = 0.3750-0.1250 0.1250 (  1095 PWs)   bands (ev):

   -44.6270 -21.2933 -21.2780 -21.2337  -6.0019  -5.2337  -5.1770  -3.9403
    -3.8741  -3.8551  -3.7309  -3.6266   3.9381   6.8138   7.3051   7.8189
     8.3634   8.7894   9.2937   9.8433   9.9544  10.9179

          k = 0.3750-0.3750 0.1250 (  1087 PWs)   bands (ev):

   -44.6257 -21.2903 -21.2891 -21.2756  -5.7292  -5.1502  -5.1110  -3.9098
    -3.8462  -3.7461  -3.6451  -3.5873   3.4783   6.7543   6.8375   7.1874
     7.5494   8.7155   9.4636   9.4801  10.1185  10.6240

     highest occupied level (ev):    10.9561

!    total energy              =    -333.18596293 Ry
     estimated scf accuracy    <          1.7E-10 Ry

     The total energy is the sum of the following terms:
     one-electron contribution =     -77.90600876 Ry
     hartree contribution      =      66.95280309 Ry
     xc contribution           =     -49.68287151 Ry
     ewald contribution        =    -272.54988576 Ry

     convergence has been achieved in   9 iterations

     Forces acting on atoms (cartesian axes, Ry/au):

     atom    1 type  2   force =     0.00000000    0.00000000    0.00078863
     atom    2 type  3   force =     0.00000000    0.00000000   -0.00091143
     atom    3 type  1   force =     0.00000000    0.00000000   -0.00003526
     atom    4 type  1   force =     0.00000000    0.00000000   -0.00003526
     atom    5 type  1   force =     0.00000000    0.00000000    0.00019332

     Total force =     0.000200     Total SCF correction =     0.000003


     Computing stress (Cartesian axis) and pressure

          total   stress  (Ry/bohr**3)                   (kbar)     P=        3.09
  -0.00004499   0.00000000   0.00000000           -6.62        0.00        0.00
   0.00000000  -0.00004499   0.00000000            0.00       -6.62        0.00
   0.00000000   0.00000000   0.00015294            0.00        0.00       22.50

     Energy error            =      6.1E-05 Ry
     Gradient error          =      1.9E-04 Ry/Bohr

     bfgs converged in  28 scf cycles and  27 bfgs steps
     (criteria: energy <  1.0E-04 Ry, force <  1.0E-03 Ry/Bohr)

     End of BFGS Geometry Optimization

     Final energy             =    -333.1859629338 Ry

     File /home/bond/Work/Lab4/Problem2/PbTiO3_a_3.875_ecut_30_nk_4_displ_-0.025/pwscf.bfgs deleted, as requested
Begin final coordinates

ATOMIC_POSITIONS (angstrom)
Pb               0.0000000000        0.0000000000        0.0000000000    0   0   0
Ti               1.9375000000        1.9375000000        1.8406200000    0   0   0
O                0.0000000000        1.9375000000        1.6679226191
O                1.9375000000        0.0000000000        1.6679226191
O                1.9375000000        1.9375000000       -0.2199642896
End final coordinates


     Message from routine punch:
     Nothing written, as per user request (disk_io='none')

     init_run     :      1.17s CPU      1.27s WALL (       1 calls)
     electrons    :     93.85s CPU    108.85s WALL (      28 calls)
     update_pot   :      0.15s CPU      0.18s WALL (      27 calls)
     forces       :      3.83s CPU      4.45s WALL (      28 calls)
     stress       :     33.09s CPU     35.37s WALL (      28 calls)

     Called by init_run:
     wfcinit      :      0.11s CPU      0.12s WALL (       1 calls)
     potinit      :      0.10s CPU      0.10s WALL (       1 calls)
     hinit0       :      0.74s CPU      0.77s WALL (       1 calls)

     Called by electrons:
     c_bands      :     41.44s CPU     44.59s WALL (     248 calls)
     sum_band     :     30.08s CPU     36.30s WALL (     248 calls)
     v_of_rho     :      0.79s CPU      0.82s WALL (     261 calls)
     newd         :     23.43s CPU     29.71s WALL (     261 calls)
     mix_rho      :      0.42s CPU      0.46s WALL (     248 calls)

     Called by c_bands:
     init_us_2    :      1.25s CPU      1.34s WALL (    3318 calls)
     cegterg      :     38.75s CPU     41.75s WALL (    1488 calls)

     Called by *egterg:
     cdiaghg      :      5.17s CPU      5.52s WALL (    7471 calls)
     h_psi        :     26.38s CPU     28.56s WALL (    7729 calls)
     s_psi        :      1.16s CPU      1.26s WALL (    7729 calls)
     g_psi        :      0.19s CPU      0.20s WALL (    6235 calls)

     Called by h_psi:
     h_psi:calbec :      2.04s CPU      2.24s WALL (    7729 calls)
     vloc_psi     :     22.80s CPU     24.63s WALL (    7729 calls)
     add_vuspsi   :      1.30s CPU      1.45s WALL (    7729 calls)

     General routines
     calbec       :      3.47s CPU      3.75s WALL (   12073 calls)
     fft          :      1.33s CPU      1.41s WALL (    1692 calls)
     ffts         :      0.12s CPU      0.12s WALL (     509 calls)
     fftw         :     20.82s CPU     22.53s WALL (  229078 calls)
     interpolate  :      0.26s CPU      0.27s WALL (     261 calls)

     Parallel routines

     PWSCF        :   2m15.27s CPU   2m34.11s WALL


   This run was terminated on:  12:56:41  21Oct2025            

=------------------------------------------------------------------------------=
   JOB DONE.
=------------------------------------------------------------------------------=
