Header of the LAMMPS data file 

10975 atoms 
1 atom types

0.0 57.14316866808858  xlo xhi
0.0 57.14316866808858  ylo yhi
0.0 57.14316866808858  zlo zhi

Masses 

1  26.9815385

Atoms # atomic 

1 1 0.00000 0.00000 0.00000 
2 1 0.00000 2.04083 2.04083 
3 1 2.04083 2.04083 0.00000 
4 1 0.00000 0.00000 4.08165 
5 1 0.00000 2.04083 6.12248 
6 1 2.04083 0.00000 6.12248 
7 1 2.04083 2.04083 4.08165 
8 1 0.00000 0.00000 8.16331 
9 1 0.00000 2.04083 10.20414 
10 1 2.04083 0.00000 10.20414 
11 1 2.04083 2.04083 8.16331 
12 1 0.00000 0.00000 12.24496 
13 1 0.00000 2.04083 14.28579 
14 1 2.04083 0.00000 14.28579 
15 1 2.04083 2.04083 12.24496 
16 1 0.00000 0.00000 16.32662 
17 1 0.00000 2.04083 18.36745 
18 1 2.04083 0.00000 18.36745 
19 1 2.04083 2.04083 16.32662 
20 1 0.00000 0.00000 20.40827 
21 1 0.00000 2.04083 22.44910 
22 1 2.04083 0.00000 22.44910 
23 1 2.04083 2.04083 20.40827 
24 1 0.00000 0.00000 24.48993 
25 1 0.00000 2.04083 26.53076 
26 1 2.04083 0.00000 26.53076 
27 1 2.04083 2.04083 24.48993 
28 1 0.00000 0.00000 28.57158 
29 1 0.00000 2.04083 30.61241 
30 1 2.04083 0.00000 30.61241 
31 1 2.04083 2.04083 28.57158 
32 1 0.00000 0.00000 32.65324 
33 1 0.00000 2.04083 34.69407 
34 1 2.04083 0.00000 34.69407 
35 1 2.04083 2.04083 32.65324 
36 1 0.00000 0.00000 36.73489 
37 1 0.00000 2.04083 38.77572 
38 1 2.04083 0.00000 38.77572 
39 1 2.04083 2.04083 36.73489 
40 1 0.00000 0.00000 40.81655 
41 1 0.00000 2.04083 42.85738 
42 1 2.04083 0.00000 42.85738 
43 1 2.04083 2.04083 40.81655 
44 1 0.00000 0.00000 44.89820 
45 1 0.00000 2.04083 46.93903 
46 1 2.04083 0.00000 46.93903 
47 1 2.04083 2.04083 44.89820 
48 1 0.00000 0.00000 48.97986 
49 1 0.00000 2.04083 51.02069 
50 1 2.04083 0.00000 51.02069 
51 1 2.04083 2.04083 48.97986 
52 1 0.00000 0.00000 53.06151 
53 1 0.00000 2.04083 55.10234 
54 1 2.04083 0.00000 55.10234 
55 1 2.04083 2.04083 53.06151 
56 1 0.00000 4.08165 0.00000 
57 1 0.00000 6.12248 2.04083 
58 1 2.04083 4.08165 2.04083 
59 1 2.04083 6.12248 0.00000 
60 1 0.00000 4.08165 4.08165 
61 1 0.00000 6.12248 6.12248 
62 1 2.04083 4.08165 6.12248 
63 1 2.04083 6.12248 4.08165 
64 1 0.00000 4.08165 8.16331 
65 1 0.00000 6.12248 10.20414 
66 1 2.04083 4.08165 10.20414 
67 1 2.04083 6.12248 8.16331 
68 1 0.00000 4.08165 12.24496 
69 1 0.00000 6.12248 14.28579 
70 1 2.04083 4.08165 14.28579 
71 1 2.04083 6.12248 12.24496 
72 1 0.00000 4.08165 16.32662 
73 1 0.00000 6.12248 18.36745 
74 1 2.04083 4.08165 18.36745 
75 1 2.04083 6.12248 16.32662 
76 1 0.00000 4.08165 20.40827 
77 1 0.00000 6.12248 22.44910 
78 1 2.04083 4.08165 22.44910 
79 1 2.04083 6.12248 20.40827 
80 1 0.00000 4.08165 24.48993 
81 1 0.00000 6.12248 26.53076 
82 1 2.04083 4.08165 26.53076 
83 1 2.04083 6.12248 24.48993 
84 1 0.00000 4.08165 28.57158 
85 1 0.00000 6.12248 30.61241 
86 1 2.04083 4.08165 30.61241 
87 1 2.04083 6.12248 28.57158 
88 1 0.00000 4.08165 32.65324 
89 1 0.00000 6.12248 34.69407 
90 1 2.04083 4.08165 34.69407 
91 1 2.04083 6.12248 32.65324 
92 1 0.00000 4.08165 36.73489 
93 1 0.00000 6.12248 38.77572 
94 1 2.04083 4.08165 38.77572 
95 1 2.04083 6.12248 36.73489 
96 1 0.00000 4.08165 40.81655 
97 1 0.00000 6.12248 42.85738 
98 1 2.04083 4.08165 42.85738 
99 1 2.04083 6.12248 40.81655 
100 1 0.00000 4.08165 44.89820 
101 1 0.00000 6.12248 46.93903 
102 1 2.04083 4.08165 46.93903 
103 1 2.04083 6.12248 44.89820 
104 1 0.00000 4.08165 48.97986 
105 1 0.00000 6.12248 51.02069 
106 1 2.04083 4.08165 51.02069 
107 1 2.04083 6.12248 48.97986 
108 1 0.00000 4.08165 53.06151 
109 1 0.00000 6.12248 55.10234 
110 1 2.04083 4.08165 55.10234 
111 1 2.04083 6.12248 53.06151 
112 1 0.00000 8.16331 0.00000 
113 1 0.00000 10.20414 2.04083 
114 1 2.04083 8.16331 2.04083 
115 1 2.04083 10.20414 0.00000 
116 1 0.00000 8.16331 4.08165 
117 1 0.00000 10.20414 6.12248 
118 1 2.04083 8.16331 6.12248 
119 1 2.04083 10.20414 4.08165 
120 1 0.00000 8.16331 8.16331 
121 1 0.00000 10.20414 10.20414 
122 1 2.04083 8.16331 10.20414 
123 1 2.04083 10.20414 8.16331 
124 1 0.00000 8.16331 12.24496 
125 1 0.00000 10.20414 14.28579 
126 1 2.04083 8.16331 14.28579 
127 1 2.04083 10.20414 12.24496 
128 1 0.00000 8.16331 16.32662 
129 1 0.00000 10.20414 18.36745 
130 1 2.04083 8.16331 18.36745 
131 1 2.04083 10.20414 16.32662 
132 1 0.00000 8.16331 20.40827 
133 1 0.00000 10.20414 22.44910 
134 1 2.04083 8.16331 22.44910 
135 1 2.04083 10.20414 20.40827 
136 1 0.00000 8.16331 24.48993 
137 1 0.00000 10.20414 26.53076 
138 1 2.04083 8.16331 26.53076 
139 1 2.04083 10.20414 24.48993 
140 1 0.00000 8.16331 28.57158 
141 1 0.00000 10.20414 30.61241 
142 1 2.04083 8.16331 30.61241 
143 1 2.04083 10.20414 28.57158 
144 1 0.00000 8.16331 32.65324 
145 1 0.00000 10.20414 34.69407 
146 1 2.04083 8.16331 34.69407 
147 1 2.04083 10.20414 32.65324 
148 1 0.00000 8.16331 36.73489 
149 1 0.00000 10.20414 38.77572 
150 1 2.04083 8.16331 38.77572 
151 1 2.04083 10.20414 36.73489 
152 1 0.00000 8.16331 40.81655 
153 1 0.00000 10.20414 42.85738 
154 1 2.04083 8.16331 42.85738 
155 1 2.04083 10.20414 40.81655 
156 1 0.00000 8.16331 44.89820 
157 1 0.00000 10.20414 46.93903 
158 1 2.04083 8.16331 46.93903 
159 1 2.04083 10.20414 44.89820 
160 1 0.00000 8.16331 48.97986 
161 1 0.00000 10.20414 51.02069 
162 1 2.04083 8.16331 51.02069 
163 1 2.04083 10.20414 48.97986 
164 1 0.00000 8.16331 53.06151 
165 1 0.00000 10.20414 55.10234 
166 1 2.04083 8.16331 55.10234 
167 1 2.04083 10.20414 53.06151 
168 1 0.00000 12.24496 0.00000 
169 1 0.00000 14.28579 2.04083 
170 1 2.04083 12.24496 2.04083 
171 1 2.04083 14.28579 0.00000 
172 1 0.00000 12.24496 4.08165 
173 1 0.00000 14.28579 6.12248 
174 1 2.04083 12.24496 6.12248 
175 1 2.04083 14.28579 4.08165 
176 1 0.00000 12.24496 8.16331 
177 1 0.00000 14.28579 10.20414 
178 1 2.04083 12.24496 10.20414 
179 1 2.04083 14.28579 8.16331 
180 1 0.00000 12.24496 12.24496 
181 1 0.00000 14.28579 14.28579 
182 1 2.04083 12.24496 14.28579 
183 1 2.04083 14.28579 12.24496 
184 1 0.00000 12.24496 16.32662 
185 1 0.00000 14.28579 18.36745 
186 1 2.04083 12.24496 18.36745 
187 1 2.04083 14.28579 16.32662 
188 1 0.00000 12.24496 20.40827 
189 1 0.00000 14.28579 22.44910 
190 1 2.04083 12.24496 22.44910 
191 1 2.04083 14.28579 20.40827 
192 1 0.00000 12.24496 24.48993 
193 1 0.00000 14.28579 26.53076 
194 1 2.04083 12.24496 26.53076 
195 1 2.04083 14.28579 24.48993 
196 1 0.00000 12.24496 28.57158 
197 1 0.00000 14.28579 30.61241 
198 1 2.04083 12.24496 30.61241 
199 1 2.04083 14.28579 28.57158 
200 1 0.00000 12.24496 32.65324 
201 1 0.00000 14.28579 34.69407 
202 1 2.04083 12.24496 34.69407 
203 1 2.04083 14.28579 32.65324 
204 1 0.00000 12.24496 36.73489 
205 1 0.00000 14.28579 38.77572 
206 1 2.04083 12.24496 38.77572 
207 1 2.04083 14.28579 36.73489 
208 1 0.00000 12.24496 40.81655 
209 1 0.00000 14.28579 42.85738 
210 1 2.04083 12.24496 42.85738 
211 1 2.04083 14.28579 40.81655 
212 1 0.00000 12.24496 44.89820 
213 1 0.00000 14.28579 46.93903 
214 1 2.04083 12.24496 46.93903 
215 1 2.04083 14.28579 44.89820 
216 1 0.00000 12.24496 48.97986 
217 1 0.00000 14.28579 51.02069 
218 1 2.04083 12.24496 51.02069 
219 1 2.04083 14.28579 48.97986 
220 1 0.00000 12.24496 53.06151 
221 1 0.00000 14.28579 55.10234 
222 1 2.04083 12.24496 55.10234 
223 1 2.04083 14.28579 53.06151 
224 1 0.00000 16.32662 0.00000 
225 1 0.00000 18.36745 2.04083 
226 1 2.04083 16.32662 2.04083 
227 1 2.04083 18.36745 0.00000 
228 1 0.00000 16.32662 4.08165 
229 1 0.00000 18.36745 6.12248 
230 1 2.04083 16.32662 6.12248 
231 1 2.04083 18.36745 4.08165 
232 1 0.00000 16.32662 8.16331 
233 1 0.00000 18.36745 10.20414 
234 1 2.04083 16.32662 10.20414 
235 1 2.04083 18.36745 8.16331 
236 1 0.00000 16.32662 12.24496 
237 1 0.00000 18.36745 14.28579 
238 1 2.04083 16.32662 14.28579 
239 1 2.04083 18.36745 12.24496 
240 1 0.00000 16.32662 16.32662 
241 1 0.00000 18.36745 18.36745 
242 1 2.04083 16.32662 18.36745 
243 1 2.04083 18.36745 16.32662 
244 1 0.00000 16.32662 20.40827 
245 1 0.00000 18.36745 22.44910 
246 1 2.04083 16.32662 22.44910 
247 1 2.04083 18.36745 20.40827 
248 1 0.00000 16.32662 24.48993 
249 1 0.00000 18.36745 26.53076 
250 1 2.04083 16.32662 26.53076 
251 1 2.04083 18.36745 24.48993 
252 1 0.00000 16.32662 28.57158 
253 1 0.00000 18.36745 30.61241 
254 1 2.04083 16.32662 30.61241 
255 1 2.04083 18.36745 28.57158 
256 1 0.00000 16.32662 32.65324 
257 1 0.00000 18.36745 34.69407 
258 1 2.04083 16.32662 34.69407 
259 1 2.04083 18.36745 32.65324 
260 1 0.00000 16.32662 36.73489 
261 1 0.00000 18.36745 38.77572 
262 1 2.04083 16.32662 38.77572 
263 1 2.04083 18.36745 36.73489 
264 1 0.00000 16.32662 40.81655 
265 1 0.00000 18.36745 42.85738 
266 1 2.04083 16.32662 42.85738 
267 1 2.04083 18.36745 40.81655 
268 1 0.00000 16.32662 44.89820 
269 1 0.00000 18.36745 46.93903 
270 1 2.04083 16.32662 46.93903 
271 1 2.04083 18.36745 44.89820 
272 1 0.00000 16.32662 48.97986 
273 1 0.00000 18.36745 51.02069 
274 1 2.04083 16.32662 51.02069 
275 1 2.04083 18.36745 48.97986 
276 1 0.00000 16.32662 53.06151 
277 1 0.00000 18.36745 55.10234 
278 1 2.04083 16.32662 55.10234 
279 1 2.04083 18.36745 53.06151 
280 1 0.00000 20.40827 0.00000 
281 1 0.00000 22.44910 2.04083 
282 1 2.04083 20.40827 2.04083 
283 1 2.04083 22.44910 0.00000 
284 1 0.00000 20.40827 4.08165 
285 1 0.00000 22.44910 6.12248 
286 1 2.04083 20.40827 6.12248 
287 1 2.04083 22.44910 4.08165 
288 1 0.00000 20.40827 8.16331 
289 1 0.00000 22.44910 10.20414 
290 1 2.04083 20.40827 10.20414 
291 1 2.04083 22.44910 8.16331 
292 1 0.00000 20.40827 12.24496 
293 1 0.00000 22.44910 14.28579 
294 1 2.04083 20.40827 14.28579 
295 1 2.04083 22.44910 12.24496 
296 1 0.00000 20.40827 16.32662 
297 1 0.00000 22.44910 18.36745 
298 1 2.04083 20.40827 18.36745 
299 1 2.04083 22.44910 16.32662 
300 1 0.00000 20.40827 20.40827 
301 1 0.00000 22.44910 22.44910 
302 1 2.04083 20.40827 22.44910 
303 1 2.04083 22.44910 20.40827 
304 1 0.00000 20.40827 24.48993 
305 1 0.00000 22.44910 26.53076 
306 1 2.04083 20.40827 26.53076 
307 1 2.04083 22.44910 24.48993 
308 1 0.00000 20.40827 28.57158 
309 1 0.00000 22.44910 30.61241 
310 1 2.04083 20.40827 30.61241 
311 1 2.04083 22.44910 28.57158 
312 1 0.00000 20.40827 32.65324 
313 1 0.00000 22.44910 34.69407 
314 1 2.04083 20.40827 34.69407 
315 1 2.04083 22.44910 32.65324 
316 1 0.00000 20.40827 36.73489 
317 1 0.00000 22.44910 38.77572 
318 1 2.04083 20.40827 38.77572 
319 1 2.04083 22.44910 36.73489 
320 1 0.00000 20.40827 40.81655 
321 1 0.00000 22.44910 42.85738 
322 1 2.04083 20.40827 42.85738 
323 1 2.04083 22.44910 40.81655 
324 1 0.00000 20.40827 44.89820 
325 1 0.00000 22.44910 46.93903 
326 1 2.04083 20.40827 46.93903 
327 1 2.04083 22.44910 44.89820 
328 1 0.00000 20.40827 48.97986 
329 1 0.00000 22.44910 51.02069 
330 1 2.04083 20.40827 51.02069 
331 1 2.04083 22.44910 48.97986 
332 1 0.00000 20.40827 53.06151 
333 1 0.00000 22.44910 55.10234 
334 1 2.04083 20.40827 55.10234 
335 1 2.04083 22.44910 53.06151 
336 1 0.00000 24.48993 0.00000 
337 1 0.00000 26.53076 2.04083 
338 1 2.04083 24.48993 2.04083 
339 1 2.04083 26.53076 0.00000 
340 1 0.00000 24.48993 4.08165 
341 1 0.00000 26.53076 6.12248 
342 1 2.04083 24.48993 6.12248 
343 1 2.04083 26.53076 4.08165 
344 1 0.00000 24.48993 8.16331 
345 1 0.00000 26.53076 10.20414 
346 1 2.04083 24.48993 10.20414 
347 1 2.04083 26.53076 8.16331 
348 1 0.00000 24.48993 12.24496 
349 1 0.00000 26.53076 14.28579 
350 1 2.04083 24.48993 14.28579 
351 1 2.04083 26.53076 12.24496 
352 1 0.00000 24.48993 16.32662 
353 1 0.00000 26.53076 18.36745 
354 1 2.04083 24.48993 18.36745 
355 1 2.04083 26.53076 16.32662 
356 1 0.00000 24.48993 20.40827 
357 1 0.00000 26.53076 22.44910 
358 1 2.04083 24.48993 22.44910 
359 1 2.04083 26.53076 20.40827 
360 1 0.00000 24.48993 24.48993 
361 1 0.00000 26.53076 26.53076 
362 1 2.04083 24.48993 26.53076 
363 1 2.04083 26.53076 24.48993 
364 1 0.00000 24.48993 28.57158 
365 1 0.00000 26.53076 30.61241 
366 1 2.04083 24.48993 30.61241 
367 1 2.04083 26.53076 28.57158 
368 1 0.00000 24.48993 32.65324 
369 1 0.00000 26.53076 34.69407 
370 1 2.04083 24.48993 34.69407 
371 1 2.04083 26.53076 32.65324 
372 1 0.00000 24.48993 36.73489 
373 1 0.00000 26.53076 38.77572 
374 1 2.04083 24.48993 38.77572 
375 1 2.04083 26.53076 36.73489 
376 1 0.00000 24.48993 40.81655 
377 1 0.00000 26.53076 42.85738 
378 1 2.04083 24.48993 42.85738 
379 1 2.04083 26.53076 40.81655 
380 1 0.00000 24.48993 44.89820 
381 1 0.00000 26.53076 46.93903 
382 1 2.04083 24.48993 46.93903 
383 1 2.04083 26.53076 44.89820 
384 1 0.00000 24.48993 48.97986 
385 1 0.00000 26.53076 51.02069 
386 1 2.04083 24.48993 51.02069 
387 1 2.04083 26.53076 48.97986 
388 1 0.00000 24.48993 53.06151 
389 1 0.00000 26.53076 55.10234 
390 1 2.04083 24.48993 55.10234 
391 1 2.04083 26.53076 53.06151 
392 1 0.00000 28.57158 0.00000 
393 1 0.00000 30.61241 2.04083 
394 1 2.04083 28.57158 2.04083 
395 1 2.04083 30.61241 0.00000 
396 1 0.00000 28.57158 4.08165 
397 1 0.00000 30.61241 6.12248 
398 1 2.04083 28.57158 6.12248 
399 1 2.04083 30.61241 4.08165 
400 1 0.00000 28.57158 8.16331 
401 1 0.00000 30.61241 10.20414 
402 1 2.04083 28.57158 10.20414 
403 1 2.04083 30.61241 8.16331 
404 1 0.00000 28.57158 12.24496 
405 1 0.00000 30.61241 14.28579 
406 1 2.04083 28.57158 14.28579 
407 1 2.04083 30.61241 12.24496 
408 1 0.00000 28.57158 16.32662 
409 1 0.00000 30.61241 18.36745 
410 1 2.04083 28.57158 18.36745 
411 1 2.04083 30.61241 16.32662 
412 1 0.00000 28.57158 20.40827 
413 1 0.00000 30.61241 22.44910 
414 1 2.04083 28.57158 22.44910 
415 1 2.04083 30.61241 20.40827 
416 1 0.00000 28.57158 24.48993 
417 1 0.00000 30.61241 26.53076 
418 1 2.04083 28.57158 26.53076 
419 1 2.04083 30.61241 24.48993 
420 1 0.00000 28.57158 28.57158 
421 1 0.00000 30.61241 30.61241 
422 1 2.04083 28.57158 30.61241 
423 1 2.04083 30.61241 28.57158 
424 1 0.00000 28.57158 32.65324 
425 1 0.00000 30.61241 34.69407 
426 1 2.04083 28.57158 34.69407 
427 1 2.04083 30.61241 32.65324 
428 1 0.00000 28.57158 36.73489 
429 1 0.00000 30.61241 38.77572 
430 1 2.04083 28.57158 38.77572 
431 1 2.04083 30.61241 36.73489 
432 1 0.00000 28.57158 40.81655 
433 1 0.00000 30.61241 42.85738 
434 1 2.04083 28.57158 42.85738 
435 1 2.04083 30.61241 40.81655 
436 1 0.00000 28.57158 44.89820 
437 1 0.00000 30.61241 46.93903 
438 1 2.04083 28.57158 46.93903 
439 1 2.04083 30.61241 44.89820 
440 1 0.00000 28.57158 48.97986 
441 1 0.00000 30.61241 51.02069 
442 1 2.04083 28.57158 51.02069 
443 1 2.04083 30.61241 48.97986 
444 1 0.00000 28.57158 53.06151 
445 1 0.00000 30.61241 55.10234 
446 1 2.04083 28.57158 55.10234 
447 1 2.04083 30.61241 53.06151 
448 1 0.00000 32.65324 0.00000 
449 1 0.00000 34.69407 2.04083 
450 1 2.04083 32.65324 2.04083 
451 1 2.04083 34.69407 0.00000 
452 1 0.00000 32.65324 4.08165 
453 1 0.00000 34.69407 6.12248 
454 1 2.04083 32.65324 6.12248 
455 1 2.04083 34.69407 4.08165 
456 1 0.00000 32.65324 8.16331 
457 1 0.00000 34.69407 10.20414 
458 1 2.04083 32.65324 10.20414 
459 1 2.04083 34.69407 8.16331 
460 1 0.00000 32.65324 12.24496 
461 1 0.00000 34.69407 14.28579 
462 1 2.04083 32.65324 14.28579 
463 1 2.04083 34.69407 12.24496 
464 1 0.00000 32.65324 16.32662 
465 1 0.00000 34.69407 18.36745 
466 1 2.04083 32.65324 18.36745 
467 1 2.04083 34.69407 16.32662 
468 1 0.00000 32.65324 20.40827 
469 1 0.00000 34.69407 22.44910 
470 1 2.04083 32.65324 22.44910 
471 1 2.04083 34.69407 20.40827 
472 1 0.00000 32.65324 24.48993 
473 1 0.00000 34.69407 26.53076 
474 1 2.04083 32.65324 26.53076 
475 1 2.04083 34.69407 24.48993 
476 1 0.00000 32.65324 28.57158 
477 1 0.00000 34.69407 30.61241 
478 1 2.04083 32.65324 30.61241 
479 1 2.04083 34.69407 28.57158 
480 1 0.00000 32.65324 32.65324 
481 1 0.00000 34.69407 34.69407 
482 1 2.04083 32.65324 34.69407 
483 1 2.04083 34.69407 32.65324 
484 1 0.00000 32.65324 36.73489 
485 1 0.00000 34.69407 38.77572 
486 1 2.04083 32.65324 38.77572 
487 1 2.04083 34.69407 36.73489 
488 1 0.00000 32.65324 40.81655 
489 1 0.00000 34.69407 42.85738 
490 1 2.04083 32.65324 42.85738 
491 1 2.04083 34.69407 40.81655 
492 1 0.00000 32.65324 44.89820 
493 1 0.00000 34.69407 46.93903 
494 1 2.04083 32.65324 46.93903 
495 1 2.04083 34.69407 44.89820 
496 1 0.00000 32.65324 48.97986 
497 1 0.00000 34.69407 51.02069 
498 1 2.04083 32.65324 51.02069 
499 1 2.04083 34.69407 48.97986 
500 1 0.00000 32.65324 53.06151 
501 1 0.00000 34.69407 55.10234 
502 1 2.04083 32.65324 55.10234 
503 1 2.04083 34.69407 53.06151 
504 1 0.00000 36.73489 0.00000 
505 1 0.00000 38.77572 2.04083 
506 1 2.04083 36.73489 2.04083 
507 1 2.04083 38.77572 0.00000 
508 1 0.00000 36.73489 4.08165 
509 1 0.00000 38.77572 6.12248 
510 1 2.04083 36.73489 6.12248 
511 1 2.04083 38.77572 4.08165 
512 1 0.00000 36.73489 8.16331 
513 1 0.00000 38.77572 10.20414 
514 1 2.04083 36.73489 10.20414 
515 1 2.04083 38.77572 8.16331 
516 1 0.00000 36.73489 12.24496 
517 1 0.00000 38.77572 14.28579 
518 1 2.04083 36.73489 14.28579 
519 1 2.04083 38.77572 12.24496 
520 1 0.00000 36.73489 16.32662 
521 1 0.00000 38.77572 18.36745 
522 1 2.04083 36.73489 18.36745 
523 1 2.04083 38.77572 16.32662 
524 1 0.00000 36.73489 20.40827 
525 1 0.00000 38.77572 22.44910 
526 1 2.04083 36.73489 22.44910 
527 1 2.04083 38.77572 20.40827 
528 1 0.00000 36.73489 24.48993 
529 1 0.00000 38.77572 26.53076 
530 1 2.04083 36.73489 26.53076 
531 1 2.04083 38.77572 24.48993 
532 1 0.00000 36.73489 28.57158 
533 1 0.00000 38.77572 30.61241 
534 1 2.04083 36.73489 30.61241 
535 1 2.04083 38.77572 28.57158 
536 1 0.00000 36.73489 32.65324 
537 1 0.00000 38.77572 34.69407 
538 1 2.04083 36.73489 34.69407 
539 1 2.04083 38.77572 32.65324 
540 1 0.00000 36.73489 36.73489 
541 1 0.00000 38.77572 38.77572 
542 1 2.04083 36.73489 38.77572 
543 1 2.04083 38.77572 36.73489 
544 1 0.00000 36.73489 40.81655 
545 1 0.00000 38.77572 42.85738 
546 1 2.04083 36.73489 42.85738 
547 1 2.04083 38.77572 40.81655 
548 1 0.00000 36.73489 44.89820 
549 1 0.00000 38.77572 46.93903 
550 1 2.04083 36.73489 46.93903 
551 1 2.04083 38.77572 44.89820 
552 1 0.00000 36.73489 48.97986 
553 1 0.00000 38.77572 51.02069 
554 1 2.04083 36.73489 51.02069 
555 1 2.04083 38.77572 48.97986 
556 1 0.00000 36.73489 53.06151 
557 1 0.00000 38.77572 55.10234 
558 1 2.04083 36.73489 55.10234 
559 1 2.04083 38.77572 53.06151 
560 1 0.00000 40.81655 0.00000 
561 1 0.00000 42.85738 2.04083 
562 1 2.04083 40.81655 2.04083 
563 1 2.04083 42.85738 0.00000 
564 1 0.00000 40.81655 4.08165 
565 1 0.00000 42.85738 6.12248 
566 1 2.04083 40.81655 6.12248 
567 1 2.04083 42.85738 4.08165 
568 1 0.00000 40.81655 8.16331 
569 1 0.00000 42.85738 10.20414 
570 1 2.04083 40.81655 10.20414 
571 1 2.04083 42.85738 8.16331 
572 1 0.00000 40.81655 12.24496 
573 1 0.00000 42.85738 14.28579 
574 1 2.04083 40.81655 14.28579 
575 1 2.04083 42.85738 12.24496 
576 1 0.00000 40.81655 16.32662 
577 1 0.00000 42.85738 18.36745 
578 1 2.04083 40.81655 18.36745 
579 1 2.04083 42.85738 16.32662 
580 1 0.00000 40.81655 20.40827 
581 1 0.00000 42.85738 22.44910 
582 1 2.04083 40.81655 22.44910 
583 1 2.04083 42.85738 20.40827 
584 1 0.00000 40.81655 24.48993 
585 1 0.00000 42.85738 26.53076 
586 1 2.04083 40.81655 26.53076 
587 1 2.04083 42.85738 24.48993 
588 1 0.00000 40.81655 28.57158 
589 1 0.00000 42.85738 30.61241 
590 1 2.04083 40.81655 30.61241 
591 1 2.04083 42.85738 28.57158 
592 1 0.00000 40.81655 32.65324 
593 1 0.00000 42.85738 34.69407 
594 1 2.04083 40.81655 34.69407 
595 1 2.04083 42.85738 32.65324 
596 1 0.00000 40.81655 36.73489 
597 1 0.00000 42.85738 38.77572 
598 1 2.04083 40.81655 38.77572 
599 1 2.04083 42.85738 36.73489 
600 1 0.00000 40.81655 40.81655 
601 1 0.00000 42.85738 42.85738 
602 1 2.04083 40.81655 42.85738 
603 1 2.04083 42.85738 40.81655 
604 1 0.00000 40.81655 44.89820 
605 1 0.00000 42.85738 46.93903 
606 1 2.04083 40.81655 46.93903 
607 1 2.04083 42.85738 44.89820 
608 1 0.00000 40.81655 48.97986 
609 1 0.00000 42.85738 51.02069 
610 1 2.04083 40.81655 51.02069 
611 1 2.04083 42.85738 48.97986 
612 1 0.00000 40.81655 53.06151 
613 1 0.00000 42.85738 55.10234 
614 1 2.04083 40.81655 55.10234 
615 1 2.04083 42.85738 53.06151 
616 1 0.00000 44.89820 0.00000 
617 1 0.00000 46.93903 2.04083 
618 1 2.04083 44.89820 2.04083 
619 1 2.04083 46.93903 0.00000 
620 1 0.00000 44.89820 4.08165 
621 1 0.00000 46.93903 6.12248 
622 1 2.04083 44.89820 6.12248 
623 1 2.04083 46.93903 4.08165 
624 1 0.00000 44.89820 8.16331 
625 1 0.00000 46.93903 10.20414 
626 1 2.04083 44.89820 10.20414 
627 1 2.04083 46.93903 8.16331 
628 1 0.00000 44.89820 12.24496 
629 1 0.00000 46.93903 14.28579 
630 1 2.04083 44.89820 14.28579 
631 1 2.04083 46.93903 12.24496 
632 1 0.00000 44.89820 16.32662 
633 1 0.00000 46.93903 18.36745 
634 1 2.04083 44.89820 18.36745 
635 1 2.04083 46.93903 16.32662 
636 1 0.00000 44.89820 20.40827 
637 1 0.00000 46.93903 22.44910 
638 1 2.04083 44.89820 22.44910 
639 1 2.04083 46.93903 20.40827 
640 1 0.00000 44.89820 24.48993 
641 1 0.00000 46.93903 26.53076 
642 1 2.04083 44.89820 26.53076 
643 1 2.04083 46.93903 24.48993 
644 1 0.00000 44.89820 28.57158 
645 1 0.00000 46.93903 30.61241 
646 1 2.04083 44.89820 30.61241 
647 1 2.04083 46.93903 28.57158 
648 1 0.00000 44.89820 32.65324 
649 1 0.00000 46.93903 34.69407 
650 1 2.04083 44.89820 34.69407 
651 1 2.04083 46.93903 32.65324 
652 1 0.00000 44.89820 36.73489 
653 1 0.00000 46.93903 38.77572 
654 1 2.04083 44.89820 38.77572 
655 1 2.04083 46.93903 36.73489 
656 1 0.00000 44.89820 40.81655 
657 1 0.00000 46.93903 42.85738 
658 1 2.04083 44.89820 42.85738 
659 1 2.04083 46.93903 40.81655 
660 1 0.00000 44.89820 44.89820 
661 1 0.00000 46.93903 46.93903 
662 1 2.04083 44.89820 46.93903 
663 1 2.04083 46.93903 44.89820 
664 1 0.00000 44.89820 48.97986 
665 1 0.00000 46.93903 51.02069 
666 1 2.04083 44.89820 51.02069 
667 1 2.04083 46.93903 48.97986 
668 1 0.00000 44.89820 53.06151 
669 1 0.00000 46.93903 55.10234 
670 1 2.04083 44.89820 55.10234 
671 1 2.04083 46.93903 53.06151 
672 1 0.00000 48.97986 0.00000 
673 1 0.00000 51.02069 2.04083 
674 1 2.04083 48.97986 2.04083 
675 1 2.04083 51.02069 0.00000 
676 1 0.00000 48.97986 4.08165 
677 1 0.00000 51.02069 6.12248 
678 1 2.04083 48.97986 6.12248 
679 1 2.04083 51.02069 4.08165 
680 1 0.00000 48.97986 8.16331 
681 1 0.00000 51.02069 10.20414 
682 1 2.04083 48.97986 10.20414 
683 1 2.04083 51.02069 8.16331 
684 1 0.00000 48.97986 12.24496 
685 1 0.00000 51.02069 14.28579 
686 1 2.04083 48.97986 14.28579 
687 1 2.04083 51.02069 12.24496 
688 1 0.00000 48.97986 16.32662 
689 1 0.00000 51.02069 18.36745 
690 1 2.04083 48.97986 18.36745 
691 1 2.04083 51.02069 16.32662 
692 1 0.00000 48.97986 20.40827 
693 1 0.00000 51.02069 22.44910 
694 1 2.04083 48.97986 22.44910 
695 1 2.04083 51.02069 20.40827 
696 1 0.00000 48.97986 24.48993 
697 1 0.00000 51.02069 26.53076 
698 1 2.04083 48.97986 26.53076 
699 1 2.04083 51.02069 24.48993 
700 1 0.00000 48.97986 28.57158 
701 1 0.00000 51.02069 30.61241 
702 1 2.04083 48.97986 30.61241 
703 1 2.04083 51.02069 28.57158 
704 1 0.00000 48.97986 32.65324 
705 1 0.00000 51.02069 34.69407 
706 1 2.04083 48.97986 34.69407 
707 1 2.04083 51.02069 32.65324 
708 1 0.00000 48.97986 36.73489 
709 1 0.00000 51.02069 38.77572 
710 1 2.04083 48.97986 38.77572 
711 1 2.04083 51.02069 36.73489 
712 1 0.00000 48.97986 40.81655 
713 1 0.00000 51.02069 42.85738 
714 1 2.04083 48.97986 42.85738 
715 1 2.04083 51.02069 40.81655 
716 1 0.00000 48.97986 44.89820 
717 1 0.00000 51.02069 46.93903 
718 1 2.04083 48.97986 46.93903 
719 1 2.04083 51.02069 44.89820 
720 1 0.00000 48.97986 48.97986 
721 1 0.00000 51.02069 51.02069 
722 1 2.04083 48.97986 51.02069 
723 1 2.04083 51.02069 48.97986 
724 1 0.00000 48.97986 53.06151 
725 1 0.00000 51.02069 55.10234 
726 1 2.04083 48.97986 55.10234 
727 1 2.04083 51.02069 53.06151 
728 1 0.00000 53.06151 0.00000 
729 1 0.00000 55.10234 2.04083 
730 1 2.04083 53.06151 2.04083 
731 1 2.04083 55.10234 0.00000 
732 1 0.00000 53.06151 4.08165 
733 1 0.00000 55.10234 6.12248 
734 1 2.04083 53.06151 6.12248 
735 1 2.04083 55.10234 4.08165 
736 1 0.00000 53.06151 8.16331 
737 1 0.00000 55.10234 10.20414 
738 1 2.04083 53.06151 10.20414 
739 1 2.04083 55.10234 8.16331 
740 1 0.00000 53.06151 12.24496 
741 1 0.00000 55.10234 14.28579 
742 1 2.04083 53.06151 14.28579 
743 1 2.04083 55.10234 12.24496 
744 1 0.00000 53.06151 16.32662 
745 1 0.00000 55.10234 18.36745 
746 1 2.04083 53.06151 18.36745 
747 1 2.04083 55.10234 16.32662 
748 1 0.00000 53.06151 20.40827 
749 1 0.00000 55.10234 22.44910 
750 1 2.04083 53.06151 22.44910 
751 1 2.04083 55.10234 20.40827 
752 1 0.00000 53.06151 24.48993 
753 1 0.00000 55.10234 26.53076 
754 1 2.04083 53.06151 26.53076 
755 1 2.04083 55.10234 24.48993 
756 1 0.00000 53.06151 28.57158 
757 1 0.00000 55.10234 30.61241 
758 1 2.04083 53.06151 30.61241 
759 1 2.04083 55.10234 28.57158 
760 1 0.00000 53.06151 32.65324 
761 1 0.00000 55.10234 34.69407 
762 1 2.04083 53.06151 34.69407 
763 1 2.04083 55.10234 32.65324 
764 1 0.00000 53.06151 36.73489 
765 1 0.00000 55.10234 38.77572 
766 1 2.04083 53.06151 38.77572 
767 1 2.04083 55.10234 36.73489 
768 1 0.00000 53.06151 40.81655 
769 1 0.00000 55.10234 42.85738 
770 1 2.04083 53.06151 42.85738 
771 1 2.04083 55.10234 40.81655 
772 1 0.00000 53.06151 44.89820 
773 1 0.00000 55.10234 46.93903 
774 1 2.04083 53.06151 46.93903 
775 1 2.04083 55.10234 44.89820 
776 1 0.00000 53.06151 48.97986 
777 1 0.00000 55.10234 51.02069 
778 1 2.04083 53.06151 51.02069 
779 1 2.04083 55.10234 48.97986 
780 1 0.00000 53.06151 53.06151 
781 1 0.00000 55.10234 55.10234 
782 1 2.04083 53.06151 55.10234 
783 1 2.04083 55.10234 53.06151 
784 1 4.08165 0.00000 0.00000 
785 1 4.08165 2.04083 2.04083 
786 1 6.12248 0.00000 2.04083 
787 1 6.12248 2.04083 0.00000 
788 1 4.08165 0.00000 4.08165 
789 1 4.08165 2.04083 6.12248 
790 1 6.12248 0.00000 6.12248 
791 1 6.12248 2.04083 4.08165 
792 1 4.08165 0.00000 8.16331 
793 1 4.08165 2.04083 10.20414 
794 1 6.12248 0.00000 10.20414 
795 1 6.12248 2.04083 8.16331 
796 1 4.08165 0.00000 12.24496 
797 1 4.08165 2.04083 14.28579 
798 1 6.12248 0.00000 14.28579 
799 1 6.12248 2.04083 12.24496 
800 1 4.08165 0.00000 16.32662 
801 1 4.08165 2.04083 18.36745 
802 1 6.12248 0.00000 18.36745 
803 1 6.12248 2.04083 16.32662 
804 1 4.08165 0.00000 20.40827 
805 1 4.08165 2.04083 22.44910 
806 1 6.12248 0.00000 22.44910 
807 1 6.12248 2.04083 20.40827 
808 1 4.08165 0.00000 24.48993 
809 1 4.08165 2.04083 26.53076 
810 1 6.12248 0.00000 26.53076 
811 1 6.12248 2.04083 24.48993 
812 1 4.08165 0.00000 28.57158 
813 1 4.08165 2.04083 30.61241 
814 1 6.12248 0.00000 30.61241 
815 1 6.12248 2.04083 28.57158 
816 1 4.08165 0.00000 32.65324 
817 1 4.08165 2.04083 34.69407 
818 1 6.12248 0.00000 34.69407 
819 1 6.12248 2.04083 32.65324 
820 1 4.08165 0.00000 36.73489 
821 1 4.08165 2.04083 38.77572 
822 1 6.12248 0.00000 38.77572 
823 1 6.12248 2.04083 36.73489 
824 1 4.08165 0.00000 40.81655 
825 1 4.08165 2.04083 42.85738 
826 1 6.12248 0.00000 42.85738 
827 1 6.12248 2.04083 40.81655 
828 1 4.08165 0.00000 44.89820 
829 1 4.08165 2.04083 46.93903 
830 1 6.12248 0.00000 46.93903 
831 1 6.12248 2.04083 44.89820 
832 1 4.08165 0.00000 48.97986 
833 1 4.08165 2.04083 51.02069 
834 1 6.12248 0.00000 51.02069 
835 1 6.12248 2.04083 48.97986 
836 1 4.08165 0.00000 53.06151 
837 1 4.08165 2.04083 55.10234 
838 1 6.12248 0.00000 55.10234 
839 1 6.12248 2.04083 53.06151 
840 1 4.08165 4.08165 0.00000 
841 1 4.08165 6.12248 2.04083 
842 1 6.12248 4.08165 2.04083 
843 1 6.12248 6.12248 0.00000 
844 1 4.08165 4.08165 4.08165 
845 1 4.08165 6.12248 6.12248 
846 1 6.12248 4.08165 6.12248 
847 1 6.12248 6.12248 4.08165 
848 1 4.08165 4.08165 8.16331 
849 1 4.08165 6.12248 10.20414 
850 1 6.12248 4.08165 10.20414 
851 1 6.12248 6.12248 8.16331 
852 1 4.08165 4.08165 12.24496 
853 1 4.08165 6.12248 14.28579 
854 1 6.12248 4.08165 14.28579 
855 1 6.12248 6.12248 12.24496 
856 1 4.08165 4.08165 16.32662 
857 1 4.08165 6.12248 18.36745 
858 1 6.12248 4.08165 18.36745 
859 1 6.12248 6.12248 16.32662 
860 1 4.08165 4.08165 20.40827 
861 1 4.08165 6.12248 22.44910 
862 1 6.12248 4.08165 22.44910 
863 1 6.12248 6.12248 20.40827 
864 1 4.08165 4.08165 24.48993 
865 1 4.08165 6.12248 26.53076 
866 1 6.12248 4.08165 26.53076 
867 1 6.12248 6.12248 24.48993 
868 1 4.08165 4.08165 28.57158 
869 1 4.08165 6.12248 30.61241 
870 1 6.12248 4.08165 30.61241 
871 1 6.12248 6.12248 28.57158 
872 1 4.08165 4.08165 32.65324 
873 1 4.08165 6.12248 34.69407 
874 1 6.12248 4.08165 34.69407 
875 1 6.12248 6.12248 32.65324 
876 1 4.08165 4.08165 36.73489 
877 1 4.08165 6.12248 38.77572 
878 1 6.12248 4.08165 38.77572 
879 1 6.12248 6.12248 36.73489 
880 1 4.08165 4.08165 40.81655 
881 1 4.08165 6.12248 42.85738 
882 1 6.12248 4.08165 42.85738 
883 1 6.12248 6.12248 40.81655 
884 1 4.08165 4.08165 44.89820 
885 1 4.08165 6.12248 46.93903 
886 1 6.12248 4.08165 46.93903 
887 1 6.12248 6.12248 44.89820 
888 1 4.08165 4.08165 48.97986 
889 1 4.08165 6.12248 51.02069 
890 1 6.12248 4.08165 51.02069 
891 1 6.12248 6.12248 48.97986 
892 1 4.08165 4.08165 53.06151 
893 1 4.08165 6.12248 55.10234 
894 1 6.12248 4.08165 55.10234 
895 1 6.12248 6.12248 53.06151 
896 1 4.08165 8.16331 0.00000 
897 1 4.08165 10.20414 2.04083 
898 1 6.12248 8.16331 2.04083 
899 1 6.12248 10.20414 0.00000 
900 1 4.08165 8.16331 4.08165 
901 1 4.08165 10.20414 6.12248 
902 1 6.12248 8.16331 6.12248 
903 1 6.12248 10.20414 4.08165 
904 1 4.08165 8.16331 8.16331 
905 1 4.08165 10.20414 10.20414 
906 1 6.12248 8.16331 10.20414 
907 1 6.12248 10.20414 8.16331 
908 1 4.08165 8.16331 12.24496 
909 1 4.08165 10.20414 14.28579 
910 1 6.12248 8.16331 14.28579 
911 1 6.12248 10.20414 12.24496 
912 1 4.08165 8.16331 16.32662 
913 1 4.08165 10.20414 18.36745 
914 1 6.12248 8.16331 18.36745 
915 1 6.12248 10.20414 16.32662 
916 1 4.08165 8.16331 20.40827 
917 1 4.08165 10.20414 22.44910 
918 1 6.12248 8.16331 22.44910 
919 1 6.12248 10.20414 20.40827 