LAMMPS (22 Jul 2025 - Update 1)
Reading data file ...
  orthogonal box = (0 0 0) to (12.244965 8.6584976 20.658498)
  1 by 1 by 1 MPI processor grid
  reading atoms ...
  63 atoms
  read_data CPU = 0.001 seconds
Reading eam/alloy potential file /home/bond/Software/LAMMPS/lammps-22Jul2025/potentials/Al_zhou.eam.alloy with DATE: 2007-10-12
WARNING: No fixes with time integration, atoms won't move
For more information see https://docs.lammps.org/err0028 (../verlet.cpp:60)
Neighbor list info ...
  update: every = 1 steps, delay = 0 steps, check = yes
  max neighbors/atom: 2000, page size: 100000
  master list distance cutoff = 12.1025
  ghost atom cutoff = 12.1025
  binsize = 6.05125, bins = 3 2 4
  1 neighbor lists, perpetual/occasional/extra = 1 0 0
  (1) pair eam/alloy, perpetual
      attributes: half, newton on
      pair build: half/bin/atomonly/newton
      stencil: half/bin/3d
      bin: standard
Setting up Verlet run ...
  Unit style    : metal
  Current step  : 0
  Time step     : 0.001
Per MPI rank memory allocation (min/avg/max) = 3.322 | 3.322 | 3.322 Mbytes
   Step         PotEng           Lx             Ly             Lz           Press           Pxx            Pyy            Pzz      
         0  -212.54048      12.244965      8.6584976      20.658498     -19061.827     -23434.57      -21974.161     -11776.75     
Loop time of 2.059e-06 on 1 procs for 0 steps with 63 atoms

97.1% CPU use with 1 MPI tasks x no OpenMP threads

MPI task timing breakdown:
Section |  min time  |  avg time  |  max time  |%varavg| %total
---------------------------------------------------------------
Pair    | 0          | 0          | 0          |   0.0 |  0.00
Neigh   | 0          | 0          | 0          |   0.0 |  0.00
Comm    | 0          | 0          | 0          |   0.0 |  0.00
Output  | 0          | 0          | 0          |   0.0 |  0.00
Modify  | 0          | 0          | 0          |   0.0 |  0.00
Other   |            | 2.059e-06  |            |       |100.00

Nlocal:             63 ave          63 max          63 min
Histogram: 1 0 0 0 0 0 0 0 0 0
Nghost:            618 ave         618 max         618 min
Histogram: 1 0 0 0 0 0 0 0 0 0
Neighs:           7497 ave        7497 max        7497 min
Histogram: 1 0 0 0 0 0 0 0 0 0

Total # of neighbors = 7497
Ave neighs/atom = 119
Neighbor list builds = 0
Dangerous builds = 0
Setting up cg style minimization ...
  Unit style    : metal
  Current step  : 0
Per MPI rank memory allocation (min/avg/max) = 4.447 | 4.447 | 4.447 Mbytes
   Step         PotEng           Lx             Ly             Lz           Press           Pxx            Pyy            Pzz      
         0  -212.54048      12.244965      8.6584976      20.658498     -19061.827     -23434.57      -21974.161     -11776.75     
         9  -212.90875      12.244965      8.6584976      20.658498     -9152.8941     -13729.422     -13728.723     -0.53732379   
Loop time of 0.00844073 on 1 procs for 9 steps with 63 atoms

100.0% CPU use with 1 MPI tasks x no OpenMP threads

Minimization stats:
  Stopping criterion = energy tolerance
  Energy initial, next-to-last, final = 
     -212.540481931348   -212.90874946285  -212.908749466157
  Force two-norm initial, final = 1.5218163 8.4759625e-05
  Force max component initial, final = 0.32283111 1.5904815e-05
  Final line search alpha, max atom move = 1 1.5904815e-05
  Iterations, force evaluations = 9 18

MPI task timing breakdown:
Section |  min time  |  avg time  |  max time  |%varavg| %total
---------------------------------------------------------------
Pair    | 0.0082068  | 0.0082068  | 0.0082068  |   0.0 | 97.23
Neigh   | 0          | 0          | 0          |   0.0 |  0.00
Comm    | 7.7332e-05 | 7.7332e-05 | 7.7332e-05 |   0.0 |  0.92
Output  | 0          | 0          | 0          |   0.0 |  0.00
Modify  | 0          | 0          | 0          |   0.0 |  0.00
Other   |            | 0.0001566  |            |       |  1.86

Nlocal:             63 ave          63 max          63 min
Histogram: 1 0 0 0 0 0 0 0 0 0
Nghost:            618 ave         618 max         618 min
Histogram: 1 0 0 0 0 0 0 0 0 0
Neighs:           7497 ave        7497 max        7497 min
Histogram: 1 0 0 0 0 0 0 0 0 0

Total # of neighbors = 7497
Ave neighs/atom = 119
Neighbor list builds = 0
Dangerous builds = 0
Total energy (eV) = -212.908749466157
Number of atoms = 63
Lattice constant (Angstoms) = 12.2449647145904
Total wall time: 0:00:00
