
     Program PWSCF v.7.4.1 starts on  9Oct2025 at 13: 2:40 

     This program is part of the open-source Quantum ESPRESSO suite
     for quantum simulation of materials; please cite
         "P. Giannozzi et al., J. Phys.:Condens. Matter 21 395502 (2009);
         "P. Giannozzi et al., J. Phys.:Condens. Matter 29 465901 (2017);
         "P. Giannozzi et al., J. Chem. Phys. 152 154105 (2020);
          URL http://www.quantum-espresso.org", 
     in publications or presentations arising from this work. More details at
     http://www.quantum-espresso.org/quote

     Parallel version (MPI), running on     1 processors

     MPI processes distributed on     1 nodes
     325 MiB available memory on the printing compute node when the environment starts

     Waiting for input...
     Reading input from standard input
Warning: card &CELL ignored
Warning: card / ignored

     Current dimensions of program PWSCF are:
     Max number of different atomic species (ntypx) = 10
     Max number of k-points (npk) =  40000
     Max angular momentum in pseudopotentials (lmaxx) =  4
     Message from routine setup:
     using ibrav=0 with symmetry is DISCOURAGED, use correct ibrav instead

     Subspace diagonalization in iterative solution of the eigenvalue problem:
     a serial algorithm will be used


     G-vector sticks info
     --------------------
     sticks:   dense  smooth     PW     G-vecs:    dense   smooth      PW
     Sum         955     955    283                19579    19579    3119

     Using Slab Decomposition



     bravais-lattice index     =            0
     lattice parameter (alat)  =       7.5872  a.u.
     unit-cell volume          =     308.8323 (a.u.)^3
     number of atoms/cell      =            2
     number of atomic types    =            1
     number of electrons       =        28.00
     number of Kohn-Sham states=           14
     kinetic-energy cutoff     =      60.0000  Ry
     charge density cutoff     =     240.0000  Ry
     scf convergence threshold =      1.0E-07
     mixing beta               =       0.5000
     number of iterations used =            8  plain     mixing
     Exchange-correlation=  SLA  PZ   NOGX NOGC
                           (   1   1   0   0   0   0   0)

     celldm(1)=   7.587160  celldm(2)=   0.000000  celldm(3)=   0.000000
     celldm(4)=   0.000000  celldm(5)=   0.000000  celldm(6)=   0.000000

     crystal axes: (cart. coord. in units of alat)
               a(1) = (   0.000000   0.707107   0.707107 )  
               a(2) = (   0.707107   0.000000   0.707107 )  
               a(3) = (   0.707107   0.707107   0.000000 )  

     reciprocal axes: (cart. coord. in units 2 pi/alat)
               b(1) = ( -0.707107  0.707107  0.707107 )  
               b(2) = (  0.707107 -0.707107  0.707107 )  
               b(3) = (  0.707107  0.707107 -0.707107 )  


     PseudoPot. # 1 for Ge read from file:
     /home/bond/Software/QE/qe-7.4.1/pseudo/ge_lda_v1.4.uspp.F.UPF
     MD5 check sum: bf9d52b59cc8a669818bb2b52e0c2ba0
     Pseudo is Ultrasoft + core correction, Zval = 14.0
     Generated by new atomic code, or converted to UPF format
     Using radial grid of  873 points,  6 beta functions with: 
                l(1) =   0
                l(2) =   0
                l(3) =   1
                l(4) =   1
                l(5) =   2
                l(6) =   2
     Q(r) pseudized with  8 coefficients,  rinner =    1.400   1.400   1.400
                                                       1.400   1.400

     atomic species   valence    mass     pseudopotential
     Ge               14.00    72.63000     Ge( 1.00)

     48 Sym. Ops., with inversion, found (24 have fractional translation)



   Cartesian axes

     site n.     atom                  positions (alat units)
         1        Ge     tau(   1) = (   0.0000000   0.0000000   0.0000000  )
         2        Ge     tau(   2) = (   0.3535534   0.3535534   0.3535534  )

     number of k points=     8
                       cart. coord. in units 2pi/alat
        k(    1) = (   0.0000000   0.0000000   0.0000000), wk =   0.0312500
        k(    2) = (   0.1767767   0.1767767  -0.1767767), wk =   0.2500000
        k(    3) = (  -0.3535534  -0.3535534   0.3535534), wk =   0.1250000
        k(    4) = (   0.3535534   0.0000000   0.0000000), wk =   0.1875000
        k(    5) = (  -0.1767767  -0.5303301   0.5303301), wk =   0.7500000
        k(    6) = (   0.0000000  -0.3535534   0.3535534), wk =   0.3750000
        k(    7) = (  -0.7071068   0.0000000   0.0000000), wk =   0.0937500
        k(    8) = (  -0.7071068   0.3535534   0.0000000), wk =   0.1875000

     Dense  grid:    19579 G-vectors     FFT dimensions: (  40,  40,  40)

     Estimated max dynamical RAM per process >      79.82 MB

     Check: negative core charge=   -0.000001

     Initial potential from superposition of free atoms

     starting charge      27.9986, renormalised to      28.0000
     Starting wfcs are   18 randomized atomic wfcs

     total cpu time spent up to now is        0.9 secs

     Self-consistent Calculation

     iteration #  1     ecut=    60.00 Ry     beta= 0.50
     Davidson diagonalization with overlap
     ethr =  1.00E-02,  avg # of iterations =  1.6

     Threshold (ethr) on eigenvalues was too large:
     Diagonalizing with lowered threshold

     Davidson diagonalization with overlap
     ethr =  1.28E-04,  avg # of iterations =  1.9

     total cpu time spent up to now is        1.7 secs

     total energy              =    -426.15246987 Ry
     estimated scf accuracy    <       0.03867397 Ry

     iteration #  2     ecut=    60.00 Ry     beta= 0.50
     Davidson diagonalization with overlap
     ethr =  1.38E-04,  avg # of iterations =  1.1

     total cpu time spent up to now is        2.0 secs

     total energy              =    -426.15094777 Ry
     estimated scf accuracy    <       0.00689175 Ry

     iteration #  3     ecut=    60.00 Ry     beta= 0.50
     Davidson diagonalization with overlap
     ethr =  2.46E-05,  avg # of iterations =  2.0

     total cpu time spent up to now is        2.5 secs

     total energy              =    -426.15144051 Ry
     estimated scf accuracy    <       0.00007409 Ry

     iteration #  4     ecut=    60.00 Ry     beta= 0.50
     Davidson diagonalization with overlap
     ethr =  2.65E-07,  avg # of iterations =  3.6

     total cpu time spent up to now is        3.0 secs

     total energy              =    -426.15145945 Ry
     estimated scf accuracy    <       0.00000335 Ry

     iteration #  5     ecut=    60.00 Ry     beta= 0.50
     Davidson diagonalization with overlap
     ethr =  1.20E-08,  avg # of iterations =  2.9

     total cpu time spent up to now is        3.6 secs

     total energy              =    -426.15146039 Ry
     estimated scf accuracy    <       0.00000013 Ry

     iteration #  6     ecut=    60.00 Ry     beta= 0.50
     Davidson diagonalization with overlap
     ethr =  4.68E-10,  avg # of iterations =  4.1

     total cpu time spent up to now is        4.1 secs

     End of self-consistent calculation

          k = 0.0000 0.0000 0.0000 (  2421 PWs)   bands (ev):

   -16.8023 -16.8023 -16.8023 -16.7670 -16.7670 -16.5615 -16.5615 -16.5615
   -16.5491 -16.5491  -4.6867   7.7742   8.0585   8.0585

          k = 0.1768 0.1768-0.1768 (  2439 PWs)   bands (ev):

   -16.8200 -16.8200 -16.7939 -16.7393 -16.7393 -16.5869 -16.5869 -16.5714
   -16.5289 -16.5289  -3.9525   3.2889   7.1835   7.1835

          k =-0.3536-0.3536 0.3536 (  2452 PWs)   bands (ev):

   -16.8262 -16.8262 -16.7851 -16.7262 -16.7262 -16.5957 -16.5957 -16.5817
   -16.5222 -16.5222  -2.6238   0.4509   6.6665   6.6665

          k = 0.3536 0.0000 0.0000 (  2429 PWs)   bands (ev):

   -16.8202 -16.8202 -16.8083 -16.7338 -16.6997 -16.6464 -16.5798 -16.5366
   -16.5338 -16.5338  -3.6871   3.2635   6.0386   6.0386

          k =-0.1768-0.5303 0.5303 (  2416 PWs)   bands (ev):

   -16.8467 -16.8321 -16.7656 -16.7000 -16.6810 -16.6627 -16.6161 -16.5854
   -16.5144 -16.5004  -2.2162   0.6436   4.3427   5.6774

          k = 0.0000-0.3536 0.3536 (  2421 PWs)   bands (ev):

   -16.8420 -16.8347 -16.7595 -16.7239 -16.6973 -16.6272 -16.6082 -16.5958
   -16.5110 -16.5076  -2.8230   1.4886   4.2071   6.5668

          k =-0.7071 0.0000 0.0000 (  2450 PWs)   bands (ev):

   -16.8355 -16.8355 -16.7517 -16.7517 -16.6555 -16.6555 -16.5996 -16.5996
   -16.5086 -16.5086  -0.8458  -0.8458   5.0110   5.0110

          k =-0.7071 0.3536 0.0000 (  2400 PWs)   bands (ev):

   -16.8489 -16.8489 -16.7105 -16.7105 -16.6630 -16.6630 -16.6317 -16.6317
   -16.4967 -16.4967  -0.7511  -0.7511   4.1748   4.1748

     highest occupied level (ev):     8.0585

!    total energy              =    -426.15146043 Ry
     estimated scf accuracy    <       0.00000003 Ry

     The total energy is the sum of the following terms:
     one-electron contribution =    -280.38994612 Ry
     hartree contribution      =     165.57596370 Ry
     xc contribution           =    -114.53865096 Ry
     ewald contribution        =    -196.79882705 Ry

     convergence has been achieved in   6 iterations

     Forces acting on atoms (cartesian axes, Ry/au):

     atom    1 type  1   force =     0.00000000    0.00000000    0.00000000
     atom    2 type  1   force =     0.00000000   -0.00000000    0.00000000

     Total force =     0.000000     Total SCF correction =     0.000000


     Computing stress (Cartesian axis) and pressure

          total   stress  (Ry/bohr**3)                   (kbar)     P=      -10.77
  -0.00007322   0.00000000   0.00000000          -10.77        0.00        0.00
   0.00000000  -0.00007322   0.00000000            0.00      -10.77        0.00
   0.00000000   0.00000000  -0.00007322            0.00        0.00      -10.77

     Message from routine punch:
     Nothing written, as per user request (disk_io='none')

     init_run     :      0.79s CPU      0.82s WALL (       1 calls)
     electrons    :      3.07s CPU      3.20s WALL (       1 calls)
     forces       :      0.09s CPU      0.09s WALL (       1 calls)
     stress       :      0.65s CPU      0.69s WALL (       1 calls)

     Called by init_run:
     wfcinit      :      0.33s CPU      0.34s WALL (       1 calls)
     potinit      :      0.02s CPU      0.02s WALL (       1 calls)
     hinit0       :      0.39s CPU      0.39s WALL (       1 calls)

     Called by electrons:
     c_bands      :      2.02s CPU      2.04s WALL (       7 calls)
     sum_band     :      0.72s CPU      0.78s WALL (       7 calls)
     v_of_rho     :      0.03s CPU      0.03s WALL (       7 calls)
     newd         :      0.32s CPU      0.40s WALL (       7 calls)
     mix_rho      :      0.01s CPU      0.01s WALL (       7 calls)

     Called by c_bands:
     init_us_2    :      0.08s CPU      0.08s WALL (     136 calls)
     cegterg      :      1.83s CPU      1.84s WALL (      56 calls)

     Called by *egterg:
     cdiaghg      :      0.03s CPU      0.03s WALL (     186 calls)
     h_psi        :      1.86s CPU      1.88s WALL (     202 calls)
     s_psi        :      0.05s CPU      0.05s WALL (     202 calls)
     g_psi        :      0.01s CPU      0.01s WALL (     138 calls)

     Called by h_psi:
     h_psi:calbec :      0.06s CPU      0.06s WALL (     202 calls)
     vloc_psi     :      1.75s CPU      1.76s WALL (     202 calls)
     add_vuspsi   :      0.05s CPU      0.05s WALL (     202 calls)

     General routines
     calbec       :      0.11s CPU      0.11s WALL (     394 calls)
     fft          :      0.22s CPU      0.22s WALL (      37 calls)
     ffts         :      0.00s CPU      0.00s WALL (       7 calls)
     fftw         :      1.75s CPU      1.76s WALL (    5032 calls)

     Parallel routines

     PWSCF        :      4.67s CPU      4.88s WALL


   This run was terminated on:  13: 2:45   9Oct2025            

=------------------------------------------------------------------------------=
   JOB DONE.
=------------------------------------------------------------------------------=
