LAMMPS (22 Jul 2025 - Update 1)
Reading data file ...
  orthogonal box = (0 0 0) to (48.979859 48.979859 48.979859)
  1 by 1 by 1 MPI processor grid
  reading atoms ...
  6911 atoms
  read_data CPU = 0.019 seconds
Reading eam/alloy potential file /home/bond/Software/LAMMPS/lammps-22Jul2025/potentials/Al_zhou.eam.alloy with DATE: 2007-10-12
WARNING: No fixes with time integration, atoms won't move
For more information see https://docs.lammps.org/err0028 (../verlet.cpp:60)
Neighbor list info ...
  update: every = 1 steps, delay = 0 steps, check = yes
  max neighbors/atom: 2000, page size: 100000
  master list distance cutoff = 12.1025
  ghost atom cutoff = 12.1025
  binsize = 6.05125, bins = 9 9 9
  1 neighbor lists, perpetual/occasional/extra = 1 0 0
  (1) pair eam/alloy, perpetual
      attributes: half, newton on
      pair build: half/bin/atomonly/newton
      stencil: half/bin/3d
      bin: standard
Setting up Verlet run ...
  Unit style    : metal
  Current step  : 0
  Time step     : 0.001
Per MPI rank memory allocation (min/avg/max) = 12.24 | 12.24 | 12.24 Mbytes
   Step         PotEng           Lx             Ly             Lz           Press           Pxx            Pyy            Pzz      
         0  -24740.564      48.979859      48.979859      48.979859     -41.194875     -41.194895     -41.194836     -41.194895    
Loop time of 1.798e-06 on 1 procs for 0 steps with 6911 atoms

222.5% CPU use with 1 MPI tasks x no OpenMP threads

MPI task timing breakdown:
Section |  min time  |  avg time  |  max time  |%varavg| %total
---------------------------------------------------------------
Pair    | 0          | 0          | 0          |   0.0 |  0.00
Neigh   | 0          | 0          | 0          |   0.0 |  0.00
Comm    | 0          | 0          | 0          |   0.0 |  0.00
Output  | 0          | 0          | 0          |   0.0 |  0.00
Modify  | 0          | 0          | 0          |   0.0 |  0.00
Other   |            | 1.798e-06  |            |       |100.00

Nlocal:           6911 ave        6911 max        6911 min
Histogram: 1 0 0 0 0 0 0 0 0 0
Nghost:          14518 ave       14518 max       14518 min
Histogram: 1 0 0 0 0 0 0 0 0 0
Neighs:    1.47874e+06 ave 1.47874e+06 max 1.47874e+06 min
Histogram: 1 0 0 0 0 0 0 0 0 0

Total # of neighbors = 1478740
Ave neighs/atom = 213.96903
Neighbor list builds = 0
Dangerous builds = 0
Setting up cg style minimization ...
  Unit style    : metal
  Current step  : 0
WARNING: Energy due to 1 extra global DOFs will be included in minimizer energies
 (../min.cpp:222)
Per MPI rank memory allocation (min/avg/max) = 14.49 | 14.49 | 14.49 Mbytes
   Step         PotEng           Lx             Ly             Lz           Press           Pxx            Pyy            Pzz      
         0  -24740.564      48.979859      48.979859      48.979859     -41.194875     -41.194895     -41.194836     -41.194895    
         7  -24740.641      48.979044      48.979044      48.979044     -1.1766509     -1.1766681     -1.1766164     -1.1766681    
Loop time of 1.01112 on 1 procs for 7 steps with 6911 atoms

99.9% CPU use with 1 MPI tasks x no OpenMP threads

Minimization stats:
  Stopping criterion = energy tolerance
  Energy initial, next-to-last, final = 
     -24740.5637018686  -24740.6410723307   -24740.641072628
  Force two-norm initial, final = 9.0975459 0.37952943
  Force max component initial, final = 9.0637241 0.2588789
  Final line search alpha, max atom move = 0.0032443924 0.00083990474
  Iterations, force evaluations = 7 14

MPI task timing breakdown:
Section |  min time  |  avg time  |  max time  |%varavg| %total
---------------------------------------------------------------
Pair    | 1.0011     | 1.0011     | 1.0011     |   0.0 | 99.01
Neigh   | 0          | 0          | 0          |   0.0 |  0.00
Comm    | 0.0016267  | 0.0016267  | 0.0016267  |   0.0 |  0.16
Output  | 0          | 0          | 0          |   0.0 |  0.00
Modify  | 0          | 0          | 0          |   0.0 |  0.00
Other   |            | 0.008404   |            |       |  0.83

Nlocal:           6911 ave        6911 max        6911 min
Histogram: 1 0 0 0 0 0 0 0 0 0
Nghost:          14518 ave       14518 max       14518 min
Histogram: 1 0 0 0 0 0 0 0 0 0
Neighs:    1.47874e+06 ave 1.47874e+06 max 1.47874e+06 min
Histogram: 1 0 0 0 0 0 0 0 0 0

Total # of neighbors = 1478740
Ave neighs/atom = 213.96903
Neighbor list builds = 0
Dangerous builds = 0
Total energy (eV) = -24740.641072628
Number of atoms = 6911
Lattice constant (Angstoms) = 48.9790437941489
Total wall time: 0:00:01
