
     Program PWSCF v.7.4.1 starts on  8Oct2025 at 21:40:49 

     This program is part of the open-source Quantum ESPRESSO suite
     for quantum simulation of materials; please cite
         "P. Giannozzi et al., J. Phys.:Condens. Matter 21 395502 (2009);
         "P. Giannozzi et al., J. Phys.:Condens. Matter 29 465901 (2017);
         "P. Giannozzi et al., J. Chem. Phys. 152 154105 (2020);
          URL http://www.quantum-espresso.org", 
     in publications or presentations arising from this work. More details at
     http://www.quantum-espresso.org/quote

     Parallel version (MPI), running on     1 processors

     MPI processes distributed on     1 nodes
     647 MiB available memory on the printing compute node when the environment starts

     Waiting for input...
     Reading input from standard input
Warning: card &CELL ignored
Warning: card / ignored

     Current dimensions of program PWSCF are:
     Max number of different atomic species (ntypx) = 10
     Max number of k-points (npk) =  40000
     Max angular momentum in pseudopotentials (lmaxx) =  4
     Message from routine setup:
     using ibrav=0 with symmetry is DISCOURAGED, use correct ibrav instead

     Subspace diagonalization in iterative solution of the eigenvalue problem:
     a serial algorithm will be used


     G-vector sticks info
     --------------------
     sticks:   dense  smooth     PW     G-vecs:    dense   smooth      PW
     Sum         517     517    163                 7991     7991    1459

     Using Slab Decomposition



     bravais-lattice index     =            0
     lattice parameter (alat)  =       7.4295  a.u.
     unit-cell volume          =     289.9753 (a.u.)^3
     number of atoms/cell      =            2
     number of atomic types    =            1
     number of electrons       =        28.00
     number of Kohn-Sham states=           14
     kinetic-energy cutoff     =      35.0000  Ry
     charge density cutoff     =     140.0000  Ry
     scf convergence threshold =      1.0E-07
     mixing beta               =       0.5000
     number of iterations used =            8  plain     mixing
     Exchange-correlation=  SLA  PZ   NOGX NOGC
                           (   1   1   0   0   0   0   0)

     celldm(1)=   7.429484  celldm(2)=   0.000000  celldm(3)=   0.000000
     celldm(4)=   0.000000  celldm(5)=   0.000000  celldm(6)=   0.000000

     crystal axes: (cart. coord. in units of alat)
               a(1) = (   0.000000   0.707107   0.707107 )  
               a(2) = (   0.707107   0.000000   0.707107 )  
               a(3) = (   0.707107   0.707107   0.000000 )  

     reciprocal axes: (cart. coord. in units 2 pi/alat)
               b(1) = ( -0.707107  0.707107  0.707107 )  
               b(2) = (  0.707107 -0.707107  0.707107 )  
               b(3) = (  0.707107  0.707107 -0.707107 )  


     PseudoPot. # 1 for Ge read from file:
     /home/bond/Software/QE/qe-7.4.1/pseudo/ge_lda_v1.4.uspp.F.UPF
     MD5 check sum: bf9d52b59cc8a669818bb2b52e0c2ba0
     Pseudo is Ultrasoft + core correction, Zval = 14.0
     Generated by new atomic code, or converted to UPF format
     Using radial grid of  873 points,  6 beta functions with: 
                l(1) =   0
                l(2) =   0
                l(3) =   1
                l(4) =   1
                l(5) =   2
                l(6) =   2
     Q(r) pseudized with  8 coefficients,  rinner =    1.400   1.400   1.400
                                                       1.400   1.400

     atomic species   valence    mass     pseudopotential
     Ge               14.00    72.63000     Ge( 1.00)

     48 Sym. Ops., with inversion, found (24 have fractional translation)



   Cartesian axes

     site n.     atom                  positions (alat units)
         1        Ge     tau(   1) = (   0.0000000   0.0000000   0.0000000  )
         2        Ge     tau(   2) = (   0.3535534   0.3535534   0.3535534  )

     number of k points=    47
                       cart. coord. in units 2pi/alat
        k(    1) = (   0.0000000   0.0000000   0.0000000), wk =   0.0020000
        k(    2) = (   0.0707107   0.0707107  -0.0707107), wk =   0.0160000
        k(    3) = (   0.1414214   0.1414214  -0.1414214), wk =   0.0160000
        k(    4) = (   0.2121320   0.2121320  -0.2121320), wk =   0.0160000
        k(    5) = (   0.2828427   0.2828427  -0.2828427), wk =   0.0160000
        k(    6) = (  -0.3535534  -0.3535534   0.3535534), wk =   0.0080000
        k(    7) = (   0.1414214   0.0000000   0.0000000), wk =   0.0120000
        k(    8) = (   0.2121320   0.0707107  -0.0707107), wk =   0.0480000
        k(    9) = (   0.2828427   0.1414214  -0.1414214), wk =   0.0480000
        k(   10) = (   0.3535534   0.2121320  -0.2121320), wk =   0.0480000
        k(   11) = (  -0.2828427  -0.4242641   0.4242641), wk =   0.0480000
        k(   12) = (  -0.2121320  -0.3535534   0.3535534), wk =   0.0480000
        k(   13) = (  -0.1414214  -0.2828427   0.2828427), wk =   0.0480000
        k(   14) = (  -0.0707107  -0.2121320   0.2121320), wk =   0.0480000
        k(   15) = (   0.0000000  -0.1414214   0.1414214), wk =   0.0240000
        k(   16) = (   0.2828427   0.0000000   0.0000000), wk =   0.0120000
        k(   17) = (   0.3535534   0.0707107  -0.0707107), wk =   0.0480000
        k(   18) = (   0.4242641   0.1414214  -0.1414214), wk =   0.0480000
        k(   19) = (  -0.2121320  -0.4949747   0.4949747), wk =   0.0480000
        k(   20) = (  -0.1414214  -0.4242641   0.4242641), wk =   0.0480000
        k(   21) = (  -0.0707107  -0.3535534   0.3535534), wk =   0.0480000
        k(   22) = (   0.0000000  -0.2828427   0.2828427), wk =   0.0240000
        k(   23) = (   0.4242641   0.0000000   0.0000000), wk =   0.0120000
        k(   24) = (   0.4949747   0.0707107  -0.0707107), wk =   0.0480000
        k(   25) = (  -0.1414214  -0.5656854   0.5656854), wk =   0.0480000
        k(   26) = (  -0.0707107  -0.4949747   0.4949747), wk =   0.0480000
        k(   27) = (  -0.0000000  -0.4242641   0.4242641), wk =   0.0240000
        k(   28) = (   0.5656854   0.0000000   0.0000000), wk =   0.0120000
        k(   29) = (  -0.0707107  -0.6363961   0.6363961), wk =   0.0480000
        k(   30) = (   0.0000000  -0.5656854   0.5656854), wk =   0.0240000
        k(   31) = (  -0.7071068   0.0000000   0.0000000), wk =   0.0060000
        k(   32) = (   0.2828427   0.1414214   0.0000000), wk =   0.0480000
        k(   33) = (   0.3535534   0.2121320  -0.0707107), wk =   0.0960000
        k(   34) = (  -0.2828427  -0.4242641   0.5656854), wk =   0.0960000
        k(   35) = (  -0.2121320  -0.3535534   0.4949747), wk =   0.0480000
        k(   36) = (   0.4242641   0.1414214  -0.0000000), wk =   0.0480000
        k(   37) = (  -0.2121320  -0.4949747   0.6363961), wk =   0.0960000
        k(   38) = (  -0.1414214  -0.4242641   0.5656854), wk =   0.0960000
        k(   39) = (  -0.0707107  -0.3535534   0.4949747), wk =   0.0960000
        k(   40) = (   0.0000000  -0.2828427   0.4242641), wk =   0.0480000
        k(   41) = (  -0.1414214  -0.5656854   0.7071068), wk =   0.0480000
        k(   42) = (  -0.0707107  -0.4949747   0.6363961), wk =   0.0960000
        k(   43) = (  -0.0000000  -0.4242641   0.5656854), wk =   0.0480000
        k(   44) = (  -0.7071068   0.1414214   0.0000000), wk =   0.0240000
        k(   45) = (  -0.1414214  -0.4242641   0.7071068), wk =   0.0480000
        k(   46) = (  -0.0707107  -0.3535534   0.6363961), wk =   0.0480000
        k(   47) = (  -0.7071068   0.2828427   0.0000000), wk =   0.0240000

     Dense  grid:     7991 G-vectors     FFT dimensions: (  32,  32,  32)

     Estimated max dynamical RAM per process >      41.99 MB

     Check: negative core charge=   -0.000019

     Initial potential from superposition of free atoms

     starting charge      27.9986, renormalised to      28.0000
     Starting wfcs are   18 randomized atomic wfcs

     total cpu time spent up to now is        1.0 secs

     Self-consistent Calculation

     iteration #  1     ecut=    35.00 Ry     beta= 0.50
     Davidson diagonalization with overlap
     ethr =  1.00E-02,  avg # of iterations =  1.8

     Threshold (ethr) on eigenvalues was too large:
     Diagonalizing with lowered threshold

     Davidson diagonalization with overlap
     ethr =  1.27E-04,  avg # of iterations =  1.9

     total cpu time spent up to now is        2.6 secs

     total energy              =    -426.16929121 Ry
     estimated scf accuracy    <       0.03759047 Ry

     iteration #  2     ecut=    35.00 Ry     beta= 0.50
     Davidson diagonalization with overlap
     ethr =  1.34E-04,  avg # of iterations =  1.0

     total cpu time spent up to now is        3.3 secs

     total energy              =    -426.16788978 Ry
     estimated scf accuracy    <       0.00647647 Ry

     iteration #  3     ecut=    35.00 Ry     beta= 0.50
     Davidson diagonalization with overlap
     ethr =  2.31E-05,  avg # of iterations =  2.0

     total cpu time spent up to now is        4.2 secs

     total energy              =    -426.16839982 Ry
     estimated scf accuracy    <       0.00007270 Ry

     iteration #  4     ecut=    35.00 Ry     beta= 0.50
     Davidson diagonalization with overlap
     ethr =  2.60E-07,  avg # of iterations =  3.6

     total cpu time spent up to now is        5.3 secs

     total energy              =    -426.16842315 Ry
     estimated scf accuracy    <       0.00000287 Ry

     iteration #  5     ecut=    35.00 Ry     beta= 0.50
     Davidson diagonalization with overlap
     ethr =  1.02E-08,  avg # of iterations =  3.5

     total cpu time spent up to now is        6.3 secs

     total energy              =    -426.16842403 Ry
     estimated scf accuracy    <       0.00000011 Ry

     iteration #  6     ecut=    35.00 Ry     beta= 0.50
     Davidson diagonalization with overlap
     ethr =  3.95E-10,  avg # of iterations =  3.5

     total cpu time spent up to now is        7.5 secs

     End of self-consistent calculation

          k = 0.0000 0.0000 0.0000 (   965 PWs)   bands (ev):

   -16.1294 -16.1294 -16.1294 -16.0885 -16.0885 -15.8474 -15.8474 -15.8474
   -15.8293 -15.8293  -4.3719   8.8558   8.8558   8.8558

          k = 0.0707 0.0707-0.0707 (   992 PWs)   bands (ev):

   -16.1366 -16.1366 -16.1279 -16.0797 -16.0797 -15.8573 -15.8573 -15.8505
   -15.8218 -15.8218  -4.2438   7.0098   8.6077   8.6077

          k = 0.1414 0.1414-0.1414 (   995 PWs)   bands (ev):

   -16.1466 -16.1466 -16.1235 -16.0634 -16.0634 -15.8704 -15.8704 -15.8563
   -15.8117 -15.8117  -3.8661   4.9678   8.1390   8.1390

          k = 0.2121 0.2121-0.2121 (  1011 PWs)   bands (ev):

   -16.1538 -16.1538 -16.1177 -16.0501 -16.0501 -15.8798 -15.8798 -15.8637
   -15.8052 -15.8052  -3.2686   3.1112   7.7256   7.7256

          k = 0.2828 0.2828-0.2828 (  1017 PWs)   bands (ev):

   -16.1573 -16.1573 -16.1123 -16.0429 -16.0429 -15.8842 -15.8842 -15.8700
   -15.8018 -15.8018  -2.5601   1.6262   7.4601   7.4601

          k =-0.3536-0.3536 0.3536 (  1008 PWs)   bands (ev):

   -16.1583 -16.1583 -16.1088 -16.0404 -16.0404 -15.8855 -15.8855 -15.8723
   -15.8006 -15.8006  -2.1542   0.9584   7.3696   7.3696

          k = 0.1414 0.0000 0.0000 (  1002 PWs)   bands (ev):

   -16.1371 -16.1343 -16.1343 -16.0826 -16.0702 -15.8762 -15.8421 -15.8421
   -15.8358 -15.8157  -4.2007   6.9976   8.1797   8.1797

          k = 0.2121 0.0707-0.0707 (   998 PWs)   bands (ev):

   -16.1483 -16.1414 -16.1292 -16.0704 -16.0523 -15.8951 -15.8534 -15.8420
   -15.8249 -15.8079  -3.9047   5.4460   7.6737   7.7185

          k = 0.2828 0.1414-0.1414 (  1012 PWs)   bands (ev):

   -16.1594 -16.1499 -16.1192 -16.0560 -16.0367 -15.9078 -15.8674 -15.8519
   -15.8136 -15.7986  -3.3749   3.6492   7.1681   7.2909

          k = 0.3536 0.2121-0.2121 (  1009 PWs)   bands (ev):

   -16.1658 -16.1556 -16.1076 -16.0438 -16.0297 -15.9097 -15.8793 -15.8652
   -15.8051 -15.7921  -2.6801   2.0669   6.6949   7.0992

          k =-0.2828-0.4243 0.4243 (  1015 PWs)   bands (ev):

   -16.1683 -16.1598 -16.0988 -16.0351 -16.0326 -15.9013 -15.8897 -15.8767
   -15.7989 -15.7903  -2.0925   1.0646   6.3847   7.1152

          k =-0.2121-0.3536 0.3536 (  1016 PWs)   bands (ev):

   -16.1661 -16.1619 -16.0983 -16.0400 -16.0303 -15.8978 -15.8857 -15.8833
   -15.7953 -15.7938  -2.2419   1.2996   6.2726   7.3301

          k =-0.1414-0.2828 0.2828 (  1007 PWs)   bands (ev):

   -16.1610 -16.1599 -16.1058 -16.0494 -16.0327 -15.8989 -15.8836 -15.8660
   -15.8026 -15.7953  -2.9237   2.5596   6.3842   7.7131

          k =-0.0707-0.2121 0.2121 (  1007 PWs)   bands (ev):

   -16.1564 -16.1499 -16.1174 -16.0605 -16.0454 -15.8907 -15.8783 -15.8472
   -15.8163 -15.7999  -3.5770   4.2260   6.7554   8.1955

          k = 0.0000-0.1414 0.1414 (   997 PWs)   bands (ev):

   -16.1470 -16.1385 -16.1269 -16.0732 -16.0640 -15.8753 -15.8673 -15.8347
   -15.8310 -15.8089  -4.0318   5.9063   7.5062   8.6042

          k = 0.2828 0.0000 0.0000 (   998 PWs)   bands (ev):

   -16.1446 -16.1446 -16.1406 -16.0634 -16.0312 -15.9222 -15.8532 -15.8253
   -15.8253 -15.8117  -3.6904   5.0398   7.1420   7.1420

          k = 0.3536 0.0707-0.0707 (  1011 PWs)   bands (ev):

   -16.1591 -16.1516 -16.1275 -16.0487 -16.0116 -15.9434 -15.8682 -15.8340
   -15.8136 -15.8011  -3.2346   3.7947   6.5093   6.7414

          k = 0.4243 0.1414-0.1414 (  1011 PWs)   bands (ev):

   -16.1718 -16.1582 -16.1078 -16.0333 -16.0009 -15.9519 -15.8847 -15.8554
   -15.8026 -15.7864  -2.5800   2.3899   5.7821   6.5462

          k =-0.2121-0.4950 0.4950 (  1015 PWs)   bands (ev):

   -16.1797 -16.1631 -16.0890 -16.0195 -16.0047 -15.9446 -15.9017 -15.8755
   -15.7944 -15.7776  -1.8942   1.2560   5.2285   6.5787

          k =-0.1414-0.4243 0.4243 (  1012 PWs)   bands (ev):

   -16.1811 -16.1666 -16.0791 -16.0197 -16.0095 -15.9247 -15.9154 -15.8867
   -15.7892 -15.7766  -1.7605   1.0684   4.9350   6.8320

          k =-0.0707-0.3536 0.3536 (  1015 PWs)   bands (ev):

   -16.1754 -16.1669 -16.0828 -16.0386 -16.0101 -15.9196 -15.9005 -15.8853
   -15.7880 -15.7851  -2.3658   2.0014   4.9720   7.2693

          k = 0.0000-0.2828 0.2828 (  1007 PWs)   bands (ev):

   -16.1636 -16.1633 -16.0993 -16.0517 -16.0243 -15.9091 -15.8889 -15.8632
   -15.8009 -15.7917  -3.0559   3.2347   5.5075   7.7974

          k = 0.4243 0.0000 0.0000 (  1018 PWs)   bands (ev):

   -16.1567 -16.1567 -16.1320 -16.0337 -15.9857 -15.9742 -15.8812 -15.8245
   -15.8060 -15.8060  -2.8518   3.1449   6.3024   6.3024

          k = 0.4950 0.0707-0.0707 (  1022 PWs)   bands (ev):

   -16.1685 -16.1620 -16.1130 -16.0161 -15.9947 -15.9659 -15.8987 -15.8468
   -15.7970 -15.7899  -2.2522   2.1236   5.6420   6.0657

          k =-0.1414-0.5657 0.5657 (  1014 PWs)   bands (ev):

   -16.1812 -16.1661 -16.0869 -15.9991 -15.9979 -15.9598 -15.9179 -15.8739
   -15.7895 -15.7750  -1.5329   1.1311   4.8013   6.0630

          k =-0.0707-0.4950 0.4950 (  1015 PWs)   bands (ev):

   -16.1882 -16.1691 -16.0718 -15.9854 -15.9836 -15.9706 -15.9352 -15.8894
   -15.7851 -15.7680  -1.1604   0.6962   4.2523   6.2936

          k =-0.0000-0.4243 0.4243 (  1011 PWs)   bands (ev):

   -16.1861 -16.1700 -16.0702 -16.0112 -15.9891 -15.9382 -15.9360 -15.8913
   -15.7845 -15.7712  -1.6698   1.2824   4.2330   6.7252

          k = 0.5657 0.0000 0.0000 (  1014 PWs)   bands (ev):

   -16.1653 -16.1653 -16.1085 -16.0259 -15.9968 -15.9369 -15.9166 -15.8517
   -15.7907 -15.7907  -1.7064   1.3491   5.7745   5.7745

          k =-0.0707-0.6364 0.6364 (  1007 PWs)   bands (ev):

   -16.1739 -16.1677 -16.0842 -16.0416 -15.9772 -15.9365 -15.9199 -15.8768
   -15.7860 -15.7805  -0.9932   0.5002   5.2026   5.7160

          k = 0.0000-0.5657 0.5657 (  1015 PWs)   bands (ev):

   -16.1847 -16.1694 -16.0701 -16.0223 -15.9652 -15.9514 -15.9361 -15.8915
   -15.7842 -15.7704  -0.5711   0.1040   4.4569   5.8971

          k =-0.7071 0.0000 0.0000 (   998 PWs)   bands (ev):

   -16.1676 -16.1676 -16.0719 -16.0719 -15.9558 -15.9558 -15.8907 -15.8907
   -15.7848 -15.7848  -0.2890  -0.2890   5.5952   5.5952

          k = 0.2828 0.1414 0.0000 (  1004 PWs)   bands (ev):

   -16.1565 -16.1504 -16.1218 -16.0594 -16.0329 -15.9157 -15.8647 -15.8414
   -15.8178 -15.8002  -3.5297   4.3751   6.4872   7.6293

          k = 0.3536 0.2121-0.0707 (  1013 PWs)   bands (ev):

   -16.1662 -16.1602 -16.1054 -16.0463 -16.0171 -15.9284 -15.8770 -15.8618
   -15.8023 -15.7914  -2.9353   2.9565   5.7820   7.2253

          k =-0.2828-0.4243 0.5657 (  1014 PWs)   bands (ev):

   -16.1745 -16.1644 -16.0899 -16.0339 -16.0119 -15.9289 -15.8898 -15.8810
   -15.7936 -15.7835  -2.2247   1.6300   5.4591   6.8607

          k =-0.2121-0.3536 0.4950 (  1018 PWs)   bands (ev):

   -16.1777 -16.1657 -16.0834 -16.0252 -16.0150 -15.9222 -15.9036 -15.8857
   -15.7913 -15.7801  -1.8095   0.9947   5.3671   6.7210

          k = 0.4243 0.1414-0.0000 (  1019 PWs)   bands (ev):

   -16.1649 -16.1630 -16.1129 -16.0336 -15.9916 -15.9646 -15.8832 -15.8489
   -15.7988 -15.7937  -2.7089   2.8183   5.6985   6.4545

          k =-0.2121-0.4950 0.6364 (  1022 PWs)   bands (ev):

   -16.1775 -16.1683 -16.0890 -16.0179 -15.9828 -15.9709 -15.9015 -15.8737
   -15.7893 -15.7802  -2.0139   1.7194   5.0280   6.1236

          k =-0.1414-0.4243 0.5657 (  1023 PWs)   bands (ev):

   -16.1851 -16.1711 -16.0713 -16.0060 -15.9851 -15.9629 -15.9204 -15.8902
   -15.7849 -15.7715  -1.4120   0.9094   4.5915   6.0649

          k =-0.0707-0.3536 0.4950 (  1015 PWs)   bands (ev):

   -16.1845 -16.1717 -16.0687 -16.0134 -15.9875 -15.9528 -15.9205 -15.8929
   -15.7837 -15.7725  -1.6005   1.1540   4.4637   6.3104

          k = 0.0000-0.2828 0.4243 (  1017 PWs)   bands (ev):

   -16.1760 -16.1696 -16.0827 -16.0329 -15.9972 -15.9450 -15.8917 -15.8869
   -15.7862 -15.7839  -2.2966   2.0875   4.8016   6.7684

          k =-0.1414-0.5657 0.7071 (  1018 PWs)   bands (ev):

   -16.1721 -16.1718 -16.0911 -16.0137 -15.9979 -15.9465 -15.9177 -15.8690
   -15.7843 -15.7842  -1.5990   1.2540   5.2607   5.6201

          k =-0.0707-0.4950 0.6364 (  1015 PWs)   bands (ev):

   -16.1837 -16.1739 -16.0648 -16.0145 -15.9806 -15.9432 -15.9377 -15.8949
   -15.7807 -15.7718  -0.8956   0.4772   4.5919   5.5219

          k =-0.0000-0.4243 0.5657 (  1014 PWs)   bands (ev):

   -16.1886 -16.1740 -16.0594 -15.9863 -15.9827 -15.9622 -15.9459 -15.8990
   -15.7801 -15.7673  -0.9292   0.5306   4.1887   5.8027

          k =-0.7071 0.1414 0.0000 (  1016 PWs)   bands (ev):

   -16.1748 -16.1748 -16.0573 -16.0573 -15.9576 -15.9576 -15.9037 -15.9037
   -15.7793 -15.7793  -0.2512  -0.2512   5.2237   5.2237

          k =-0.1414-0.4243 0.7071 (  1031 PWs)   bands (ev):

   -16.1833 -16.1777 -16.0617 -16.0008 -15.9890 -15.9616 -15.9260 -15.8979
   -15.7784 -15.7732  -1.3086   0.9594   4.5205   5.5496

          k =-0.0707-0.3536 0.6364 (  1022 PWs)   bands (ev):

   -16.1871 -16.1793 -16.0477 -15.9970 -15.9836 -15.9574 -15.9416 -15.9082
   -15.7762 -15.7687  -0.8276   0.4531   4.3735   5.2964

          k =-0.7071 0.2828 0.0000 (  1020 PWs)   bands (ev):

   -16.1831 -16.1831 -16.0295 -16.0295 -15.9634 -15.9634 -15.9250 -15.9250
   -15.7719 -15.7719  -0.1868  -0.1868   4.7548   4.7548

     highest occupied level (ev):     8.8558

!    total energy              =    -426.16842407 Ry
     estimated scf accuracy    <       0.00000003 Ry

     The total energy is the sum of the following terms:
     one-electron contribution =    -273.37425029 Ry
     hartree contribution      =     162.78286292 Ry
     xc contribution           =    -114.60154391 Ry
     ewald contribution        =    -200.97549279 Ry

     convergence has been achieved in   6 iterations

     Forces acting on atoms (cartesian axes, Ry/au):

     atom    1 type  1   force =    -0.00000000   -0.00000000   -0.00000000
     atom    2 type  1   force =     0.00000000   -0.00000000   -0.00000000

     Total force =     0.000000     Total SCF correction =     0.000000


     Computing stress (Cartesian axis) and pressure

          total   stress  (Ry/bohr**3)                   (kbar)     P=       12.20
   0.00008290   0.00000000   0.00000000           12.20        0.00        0.00
   0.00000000   0.00008290   0.00000000            0.00       12.20        0.00
   0.00000000   0.00000000   0.00008290            0.00        0.00       12.20

     Message from routine punch:
     Nothing written, as per user request (disk_io='none')

     init_run     :      0.85s CPU      0.86s WALL (       1 calls)
     electrons    :      6.40s CPU      6.52s WALL (       1 calls)
     forces       :      0.07s CPU      0.07s WALL (       1 calls)
     stress       :      0.48s CPU      0.48s WALL (       1 calls)

     Called by init_run:
     wfcinit      :      0.53s CPU      0.53s WALL (       1 calls)
     potinit      :      0.01s CPU      0.01s WALL (       1 calls)
     hinit0       :      0.28s CPU      0.28s WALL (       1 calls)

     Called by electrons:
     c_bands      :      5.23s CPU      5.34s WALL (       7 calls)
     sum_band     :      1.03s CPU      1.05s WALL (       7 calls)
     v_of_rho     :      0.01s CPU      0.01s WALL (       7 calls)
     newd         :      0.15s CPU      0.15s WALL (       7 calls)
     mix_rho      :      0.00s CPU      0.00s WALL (       7 calls)

     Called by c_bands:
     init_us_2    :      0.20s CPU      0.20s WALL (     799 calls)
     cegterg      :      4.75s CPU      4.84s WALL (     329 calls)

     Called by *egterg:
     cdiaghg      :      0.20s CPU      0.20s WALL (    1102 calls)
     h_psi        :      4.43s CPU      4.51s WALL (    1196 calls)
     s_psi        :      0.11s CPU      0.11s WALL (    1196 calls)
     g_psi        :      0.03s CPU      0.03s WALL (     820 calls)

     Called by h_psi:
     h_psi:calbec :      0.14s CPU      0.15s WALL (    1196 calls)
     vloc_psi     :      4.14s CPU      4.21s WALL (    1196 calls)
     add_vuspsi   :      0.12s CPU      0.12s WALL (    1196 calls)

     General routines
     calbec       :      0.27s CPU      0.28s WALL (    2324 calls)
     fft          :      0.14s CPU      0.14s WALL (      37 calls)
     ffts         :      0.00s CPU      0.00s WALL (       7 calls)
     fftw         :      4.10s CPU      4.17s WALL (   29958 calls)

     Parallel routines

     PWSCF        :      7.89s CPU      8.03s WALL


   This run was terminated on:  21:40:57   8Oct2025            

=------------------------------------------------------------------------------=
   JOB DONE.
=------------------------------------------------------------------------------=
