LAMMPS (22 Jul 2025 - Update 1)
# ---------- 1. Initialize simulation ---------------------
units metal
atom_style atomic
dimension  3
boundary   p p f
read_data /home/bond/Work/Lab1/Surface/LJ/relax/5_9_110/lammps.data
Reading data file ...
  orthogonal box = (0 0 0) to (12.367569 8.7451919 23.830128)
  1 by 1 by 1 MPI processor grid
  reading atoms ...
  45 atoms
  read_data CPU = 0.001 seconds

# ---------- 2. Specify interatomic potential ---------------------
pair_style lj/cut 4.5
pair_coeff 1 1 0.392 2.620 4.5

# ---------- 3. Run single point calculation  ---------------------
thermo_style custom step pe lx ly lz press pxx pyy pzz
run 0
WARNING: No fixes with time integration, atoms won't move
For more information see https://docs.lammps.org/err0028 (../verlet.cpp:60)
Generated 0 of 0 mixed pair_coeff terms from geometric mixing rule
Neighbor list info ...
  update: every = 1 steps, delay = 0 steps, check = yes
  max neighbors/atom: 2000, page size: 100000
  master list distance cutoff = 6.5
  ghost atom cutoff = 6.5
  binsize = 3.25, bins = 4 3 8
  1 neighbor lists, perpetual/occasional/extra = 1 0 0
  (1) pair lj/cut, perpetual
      attributes: half, newton on
      pair build: half/bin/atomonly/newton
      stencil: half/bin/3d
      bin: standard
Per MPI rank memory allocation (min/avg/max) = 3.054 | 3.054 | 3.054 Mbytes
   Step         PotEng           Lx             Ly             Lz           Press           Pxx            Pyy            Pzz      
         0  -93.977174      12.367569      8.7451919      23.830128      1003.4635     -3011.2485      4516.6394      1504.9994    
Loop time of 1.604e-06 on 1 procs for 0 steps with 45 atoms

187.0% CPU use with 1 MPI tasks x no OpenMP threads

MPI task timing breakdown:
Section |  min time  |  avg time  |  max time  |%varavg| %total
---------------------------------------------------------------
Pair    | 0          | 0          | 0          |   0.0 |  0.00
Neigh   | 0          | 0          | 0          |   0.0 |  0.00
Comm    | 0          | 0          | 0          |   0.0 |  0.00
Output  | 0          | 0          | 0          |   0.0 |  0.00
Modify  | 0          | 0          | 0          |   0.0 |  0.00
Other   |            | 1.604e-06  |            |       |100.00

Nlocal:             45 ave          45 max          45 min
Histogram: 1 0 0 0 0 0 0 0 0 0
Nghost:            197 ave         197 max         197 min
Histogram: 1 0 0 0 0 0 0 0 0 0
Neighs:            837 ave         837 max         837 min
Histogram: 1 0 0 0 0 0 0 0 0 0

Total # of neighbors = 837
Ave neighs/atom = 18.6
Neighbor list builds = 0
Dangerous builds = 0
# -- include optimization of the unit cell parameter
fix 1 all box/relax x 0.0 y 0.0 couple xy vmax 0.001

# -- enable optimization of atomic positions (and the cell)
min_style cg
minimize 1e-10 1e-10 1000 10000
Generated 0 of 0 mixed pair_coeff terms from geometric mixing rule
WARNING: Energy due to 3 extra global DOFs will be included in minimizer energies
 (../min.cpp:222)
Per MPI rank memory allocation (min/avg/max) = 4.179 | 4.179 | 4.179 Mbytes
   Step         PotEng           Lx             Ly             Lz           Press           Pxx            Pyy            Pzz      
         0  -93.977174      12.367569      8.7451919      23.830128      1003.4635     -3011.2485      4516.6394      1504.9994    
         9  -93.988962      12.364733      8.7431865      23.830128     -1.1303186     -4201.4703      4201.1877     -3.1083193    
Loop time of 0.000638681 on 1 procs for 9 steps with 45 atoms

99.7% CPU use with 1 MPI tasks x no OpenMP threads

Minimization stats:
  Stopping criterion = energy tolerance
  Energy initial, next-to-last, final = 
     -93.9771735394735  -93.9889621633319  -93.9889621636176
  Force two-norm initial, final = 1.7997914 0.0005920486
  Force max component initial, final = 1.2108463 0.00022728366
  Final line search alpha, max atom move = 1 0.00022728366
  Iterations, force evaluations = 9 18

MPI task timing breakdown:
Section |  min time  |  avg time  |  max time  |%varavg| %total
---------------------------------------------------------------
Pair    | 0.00034781 | 0.00034781 | 0.00034781 |   0.0 | 54.46
Neigh   | 0          | 0          | 0          |   0.0 |  0.00
Comm    | 3.0872e-05 | 3.0872e-05 | 3.0872e-05 |   0.0 |  4.83
Output  | 0          | 0          | 0          |   0.0 |  0.00
Modify  | 0          | 0          | 0          |   0.0 |  0.00
Other   |            | 0.00026    |            |       | 40.71

Nlocal:             45 ave          45 max          45 min
Histogram: 1 0 0 0 0 0 0 0 0 0
Nghost:            197 ave         197 max         197 min
Histogram: 1 0 0 0 0 0 0 0 0 0
Neighs:            837 ave         837 max         837 min
Histogram: 1 0 0 0 0 0 0 0 0 0

Total # of neighbors = 837
Ave neighs/atom = 18.6
Neighbor list builds = 0
Dangerous builds = 0

# ---- 4. Define and print useful variables -------------
variable natoms equal "count(all)"
variable totenergy equal "pe"
variable length equal "lx"

print "Total energy (eV) = ${totenergy}"
Total energy (eV) = -93.9889621636176
print "Number of atoms = ${natoms}"
Number of atoms = 45
print "Lattice constant (Angstoms) = ${length}"
Lattice constant (Angstoms) = 12.364732911247
Total wall time: 0:00:00
