
     Program PWSCF v.7.4.1 starts on  8Oct2025 at  1:41:57 

     This program is part of the open-source Quantum ESPRESSO suite
     for quantum simulation of materials; please cite
         "P. Giannozzi et al., J. Phys.:Condens. Matter 21 395502 (2009);
         "P. Giannozzi et al., J. Phys.:Condens. Matter 29 465901 (2017);
         "P. Giannozzi et al., J. Chem. Phys. 152 154105 (2020);
          URL http://www.quantum-espresso.org", 
     in publications or presentations arising from this work. More details at
     http://www.quantum-espresso.org/quote

     Parallel version (MPI), running on     1 processors

     MPI processes distributed on     1 nodes
     590 MiB available memory on the printing compute node when the environment starts

     Waiting for input...
     Reading input from standard input
Warning: card &CELL ignored
Warning: card / ignored

     Current dimensions of program PWSCF are:
     Max number of different atomic species (ntypx) = 10
     Max number of k-points (npk) =  40000
     Max angular momentum in pseudopotentials (lmaxx) =  4
     Message from routine setup:
     using ibrav=0 with symmetry is DISCOURAGED, use correct ibrav instead

     Subspace diagonalization in iterative solution of the eigenvalue problem:
     a serial algorithm will be used


     G-vector sticks info
     --------------------
     sticks:   dense  smooth     PW     G-vecs:    dense   smooth      PW
     Sum         475     475    151                 6855     6855    1139

     Using Slab Decomposition



     bravais-lattice index     =            0
     lattice parameter (alat)  =       7.5604  a.u.
     unit-cell volume          =     305.5804 (a.u.)^3
     number of atoms/cell      =            2
     number of atomic types    =            1
     number of electrons       =        28.00
     number of Kohn-Sham states=           14
     kinetic-energy cutoff     =      30.0000  Ry
     charge density cutoff     =     120.0000  Ry
     scf convergence threshold =      1.0E-07
     mixing beta               =       0.5000
     number of iterations used =            8  plain     mixing
     Exchange-correlation=  SLA  PZ   NOGX NOGC
                           (   1   1   0   0   0   0   0)

     celldm(1)=   7.560435  celldm(2)=   0.000000  celldm(3)=   0.000000
     celldm(4)=   0.000000  celldm(5)=   0.000000  celldm(6)=   0.000000

     crystal axes: (cart. coord. in units of alat)
               a(1) = (   0.000000   0.707107   0.707107 )  
               a(2) = (   0.707107   0.000000   0.707107 )  
               a(3) = (   0.707107   0.707107   0.000000 )  

     reciprocal axes: (cart. coord. in units 2 pi/alat)
               b(1) = ( -0.707107  0.707107  0.707107 )  
               b(2) = (  0.707107 -0.707107  0.707107 )  
               b(3) = (  0.707107  0.707107 -0.707107 )  


     PseudoPot. # 1 for Ge read from file:
     /home/bond/Software/QE/qe-7.4.1/pseudo/ge_lda_v1.4.uspp.F.UPF
     MD5 check sum: bf9d52b59cc8a669818bb2b52e0c2ba0
     Pseudo is Ultrasoft + core correction, Zval = 14.0
     Generated by new atomic code, or converted to UPF format
     Using radial grid of  873 points,  6 beta functions with: 
                l(1) =   0
                l(2) =   0
                l(3) =   1
                l(4) =   1
                l(5) =   2
                l(6) =   2
     Q(r) pseudized with  8 coefficients,  rinner =    1.400   1.400   1.400
                                                       1.400   1.400

     atomic species   valence    mass     pseudopotential
     Ge               14.00    72.63000     Ge( 1.00)

      4 Sym. Ops. (no inversion) found



   Cartesian axes

     site n.     atom                  positions (alat units)
         1        Ge     tau(   1) = (   0.0000000   0.0000000   0.0707107  )
         2        Ge     tau(   2) = (   0.3535534   0.3535534   0.3535534  )

     number of k points=     5
                       cart. coord. in units 2pi/alat
        k(    1) = (   0.0000000   0.0000000   0.0000000), wk =   0.2500000
        k(    2) = (  -0.3535534  -0.3535534   0.3535534), wk =   0.5000000
        k(    3) = (  -0.7071068   0.0000000   0.0000000), wk =   0.5000000
        k(    4) = (  -0.3535534   0.3535534   0.3535534), wk =   0.5000000
        k(    5) = (   0.0000000   0.0000000  -0.7071068), wk =   0.2500000

     Dense  grid:     6855 G-vectors     FFT dimensions: (  27,  27,  27)

     Estimated max dynamical RAM per process >      27.66 MB

     Check: negative core charge=   -0.000124

     Initial potential from superposition of free atoms

     starting charge      27.9986, renormalised to      28.0000
     Starting wfcs are   18 randomized atomic wfcs

     total cpu time spent up to now is        0.9 secs

     Self-consistent Calculation

     iteration #  1     ecut=    30.00 Ry     beta= 0.50
     Davidson diagonalization with overlap
     ethr =  1.00E-02,  avg # of iterations =  2.0

     Threshold (ethr) on eigenvalues was too large:
     Diagonalizing with lowered threshold

     Davidson diagonalization with overlap
     ethr =  2.54E-04,  avg # of iterations =  1.6

     total cpu time spent up to now is        1.2 secs

     total energy              =    -425.90154309 Ry
     estimated scf accuracy    <       0.07346183 Ry

     iteration #  2     ecut=    30.00 Ry     beta= 0.50
     Davidson diagonalization with overlap
     ethr =  2.62E-04,  avg # of iterations =  1.8

     total cpu time spent up to now is        1.4 secs

     total energy              =    -425.89929301 Ry
     estimated scf accuracy    <       0.01200121 Ry

     iteration #  3     ecut=    30.00 Ry     beta= 0.50
     Davidson diagonalization with overlap
     ethr =  4.29E-05,  avg # of iterations =  2.0

     total cpu time spent up to now is        1.7 secs

     total energy              =    -425.90033680 Ry
     estimated scf accuracy    <       0.00013481 Ry

     iteration #  4     ecut=    30.00 Ry     beta= 0.50
     Davidson diagonalization with overlap
     ethr =  4.81E-07,  avg # of iterations =  3.4

     total cpu time spent up to now is        1.9 secs

     total energy              =    -425.90037964 Ry
     estimated scf accuracy    <       0.00000361 Ry

     iteration #  5     ecut=    30.00 Ry     beta= 0.50
     Davidson diagonalization with overlap
     ethr =  1.29E-08,  avg # of iterations =  5.4

     total cpu time spent up to now is        2.2 secs

     total energy              =    -425.90038254 Ry
     estimated scf accuracy    <       0.00000018 Ry

     iteration #  6     ecut=    30.00 Ry     beta= 0.50
     Davidson diagonalization with overlap
     ethr =  6.51E-10,  avg # of iterations =  3.6

     total cpu time spent up to now is        2.4 secs

     End of self-consistent calculation

          k = 0.0000 0.0000 0.0000 (   869 PWs)   bands (ev):

   -16.4851 -16.4551 -16.4282 -16.3746 -16.3712 -16.2172 -16.1725 -16.1573
   -16.1548 -16.1540  -4.4902   7.2009   8.2738   8.6641

          k =-0.3536-0.3536 0.3536 (   862 PWs)   bands (ev):

   -16.5403 -16.5301 -16.4097 -16.3560 -16.3318 -16.2357 -16.2355 -16.1545
   -16.0796 -16.0525  -2.0587  -0.0554   6.5940   7.6601

          k =-0.7071 0.0000 0.0000 (   846 PWs)   bands (ev):

   -16.5331 -16.5331 -16.3707 -16.3707 -16.2728 -16.2727 -16.2103 -16.2103
   -16.0524 -16.0524  -0.6531  -0.6531   5.4307   5.4307

          k =-0.3536 0.3536 0.3536 (   862 PWs)   bands (ev):

   -16.4727 -16.4707 -16.4041 -16.3520 -16.3259 -16.2614 -16.2013 -16.1786
   -16.1517 -16.1215  -2.7142   1.4782   6.2083   7.7582

          k = 0.0000 0.0000-0.7071 (   846 PWs)   bands (ev):

   -16.4739 -16.4576 -16.3892 -16.3647 -16.3348 -16.2261 -16.2039 -16.1776
   -16.1624 -16.0977  -1.4337   0.4715   4.8493   5.5611

     highest occupied level (ev):     8.6641

!    total energy              =    -425.90038259 Ry
     estimated scf accuracy    <       0.00000003 Ry

     The total energy is the sum of the following terms:
     one-electron contribution =    -280.87957518 Ry
     hartree contribution      =     166.31469274 Ry
     xc contribution           =    -114.58628208 Ry
     ewald contribution        =    -196.74921808 Ry

     convergence has been achieved in   6 iterations

     Forces acting on atoms (cartesian axes, Ry/au):

     atom    1 type  1   force =     0.00000000    0.00000000   -0.11948904
     atom    2 type  1   force =     0.00000000    0.00000000    0.11948904

     Total force =     0.168983     Total SCF correction =     0.001033


     Computing stress (Cartesian axis) and pressure

          total   stress  (Ry/bohr**3)                   (kbar)     P=        0.96
   0.00001160   0.00089549   0.00000000            1.71      131.73        0.00
   0.00089549   0.00001160   0.00000000          131.73        1.71        0.00
   0.00000000   0.00000000  -0.00000357            0.00        0.00       -0.52

     Message from routine punch:
     Nothing written, as per user request (disk_io='none')

     init_run     :      0.52s CPU      0.62s WALL (       1 calls)
     electrons    :      1.50s CPU      1.55s WALL (       1 calls)
     forces       :      0.04s CPU      0.05s WALL (       1 calls)
     stress       :      0.32s CPU      0.32s WALL (       1 calls)

     Called by init_run:
     wfcinit      :      0.13s CPU      0.17s WALL (       1 calls)
     potinit      :      0.02s CPU      0.02s WALL (       1 calls)
     hinit0       :      0.33s CPU      0.38s WALL (       1 calls)

     Called by electrons:
     c_bands      :      0.94s CPU      0.97s WALL (       7 calls)
     sum_band     :      0.38s CPU      0.40s WALL (       7 calls)
     v_of_rho     :      0.01s CPU      0.01s WALL (       7 calls)
     newd         :      0.19s CPU      0.20s WALL (       7 calls)
     mix_rho      :      0.01s CPU      0.01s WALL (       7 calls)

     Called by c_bands:
     init_us_2    :      0.03s CPU      0.03s WALL (      85 calls)
     cegterg      :      0.87s CPU      0.90s WALL (      35 calls)

     Called by *egterg:
     cdiaghg      :      0.04s CPU      0.04s WALL (     129 calls)
     h_psi        :      0.87s CPU      0.92s WALL (     139 calls)
     s_psi        :      0.02s CPU      0.02s WALL (     139 calls)
     g_psi        :      0.00s CPU      0.00s WALL (      99 calls)

     Called by h_psi:
     h_psi:calbec :      0.02s CPU      0.02s WALL (     139 calls)
     vloc_psi     :      0.82s CPU      0.87s WALL (     139 calls)
     add_vuspsi   :      0.02s CPU      0.02s WALL (     139 calls)

     General routines
     calbec       :      0.04s CPU      0.04s WALL (     259 calls)
     fft          :      0.11s CPU      0.15s WALL (      37 calls)
     ffts         :      0.00s CPU      0.00s WALL (       7 calls)
     fftw         :      0.89s CPU      0.95s WALL (    3136 calls)

     Parallel routines

     PWSCF        :      2.53s CPU      2.79s WALL


   This run was terminated on:   1:41:59   8Oct2025            

=------------------------------------------------------------------------------=
   JOB DONE.
=------------------------------------------------------------------------------=
