LAMMPS (22 Jul 2025 - Update 1)
Reading data file ...
  orthogonal box = (0 0 0) to (8.7451919 8.7451919 34.673877)
  1 by 1 by 1 MPI processor grid
  reading atoms ...
  108 atoms
  read_data CPU = 0.001 seconds
WARNING: No fixes with time integration, atoms won't move
For more information see https://docs.lammps.org/err0028 (../verlet.cpp:60)
Generated 0 of 0 mixed pair_coeff terms from geometric mixing rule
Neighbor list info ...
  update: every = 1 steps, delay = 0 steps, check = yes
  max neighbors/atom: 2000, page size: 100000
  master list distance cutoff = 6.5
  ghost atom cutoff = 6.5
  binsize = 3.25, bins = 3 3 11
  1 neighbor lists, perpetual/occasional/extra = 1 0 0
  (1) pair lj/cut, perpetual
      attributes: half, newton on
      pair build: half/bin/atomonly/newton
      stencil: half/bin/3d
      bin: standard
Setting up Verlet run ...
  Unit style    : metal
  Current step  : 0
  Time step     : 0.001
Per MPI rank memory allocation (min/avg/max) = 3.073 | 3.073 | 3.073 Mbytes
   Step         PotEng           Lx             Ly             Lz           Press           Pxx            Pyy            Pzz      
         0  -268.72967      8.7451919      8.7451919      34.673877     -0.18669683    -1463.4623     -1463.4623      2926.3645    
Loop time of 1.507e-06 on 1 procs for 0 steps with 108 atoms

66.4% CPU use with 1 MPI tasks x no OpenMP threads

MPI task timing breakdown:
Section |  min time  |  avg time  |  max time  |%varavg| %total
---------------------------------------------------------------
Pair    | 0          | 0          | 0          |   0.0 |  0.00
Neigh   | 0          | 0          | 0          |   0.0 |  0.00
Comm    | 0          | 0          | 0          |   0.0 |  0.00
Output  | 0          | 0          | 0          |   0.0 |  0.00
Modify  | 0          | 0          | 0          |   0.0 |  0.00
Other   |            | 1.507e-06  |            |       |100.00

Nlocal:            108 ave         108 max         108 min
Histogram: 1 0 0 0 0 0 0 0 0 0
Nghost:            570 ave         570 max         570 min
Histogram: 1 0 0 0 0 0 0 0 0 0
Neighs:           2646 ave        2646 max        2646 min
Histogram: 1 0 0 0 0 0 0 0 0 0

Total # of neighbors = 2646
Ave neighs/atom = 24.5
Neighbor list builds = 0
Dangerous builds = 0
Generated 0 of 0 mixed pair_coeff terms from geometric mixing rule
Setting up cg style minimization ...
  Unit style    : metal
  Current step  : 0
WARNING: Energy due to 3 extra global DOFs will be included in minimizer energies
 (../min.cpp:222)
Per MPI rank memory allocation (min/avg/max) = 4.198 | 4.198 | 4.198 Mbytes
   Step         PotEng           Lx             Ly             Lz           Press           Pxx            Pyy            Pzz      
         0  -268.72967      8.7451919      8.7451919      34.673877     -0.18669683    -1463.4623     -1463.4623      2926.3645    
        37  -268.75863      8.7310211      8.7310211      34.673877      4.9264783      2.703081       2.703081       9.3732729    
Loop time of 0.00465555 on 1 procs for 37 steps with 108 atoms

99.9% CPU use with 1 MPI tasks x no OpenMP threads

Minimization stats:
  Stopping criterion = energy tolerance
  Energy initial, next-to-last, final = 
     -268.729670859267  -268.758631500551  -268.758631523066
  Force two-norm initial, final = 3.5139816 0.0073536289
  Force max component initial, final = 2.4222126 0.0044666867
  Final line search alpha, max atom move = 1 0.0044666867
  Iterations, force evaluations = 37 74

MPI task timing breakdown:
Section |  min time  |  avg time  |  max time  |%varavg| %total
---------------------------------------------------------------
Pair    | 0.0031088  | 0.0031088  | 0.0031088  |   0.0 | 66.78
Neigh   | 0          | 0          | 0          |   0.0 |  0.00
Comm    | 0.00028733 | 0.00028733 | 0.00028733 |   0.0 |  6.17
Output  | 0          | 0          | 0          |   0.0 |  0.00
Modify  | 0          | 0          | 0          |   0.0 |  0.00
Other   |            | 0.001259   |            |       | 27.05

Nlocal:            108 ave         108 max         108 min
Histogram: 1 0 0 0 0 0 0 0 0 0
Nghost:            570 ave         570 max         570 min
Histogram: 1 0 0 0 0 0 0 0 0 0
Neighs:           2646 ave        2646 max        2646 min
Histogram: 1 0 0 0 0 0 0 0 0 0

Total # of neighbors = 2646
Ave neighs/atom = 24.5
Neighbor list builds = 0
Dangerous builds = 0
Total energy (eV) = -268.758631523066
Number of atoms = 108
Lattice constant (Angstoms) = 8.73102107273223
Total wall time: 0:00:00
