
     Program PWSCF v.7.4.1 starts on  7Oct2025 at 23:57:13 

     This program is part of the open-source Quantum ESPRESSO suite
     for quantum simulation of materials; please cite
         "P. Giannozzi et al., J. Phys.:Condens. Matter 21 395502 (2009);
         "P. Giannozzi et al., J. Phys.:Condens. Matter 29 465901 (2017);
         "P. Giannozzi et al., J. Chem. Phys. 152 154105 (2020);
          URL http://www.quantum-espresso.org", 
     in publications or presentations arising from this work. More details at
     http://www.quantum-espresso.org/quote

     Parallel version (MPI), running on     1 processors

     MPI processes distributed on     1 nodes
     242 MiB available memory on the printing compute node when the environment starts

     Waiting for input...
     Reading input from standard input
Warning: card &CELL ignored
Warning: card / ignored

     Current dimensions of program PWSCF are:
     Max number of different atomic species (ntypx) = 10
     Max number of k-points (npk) =  40000
     Max angular momentum in pseudopotentials (lmaxx) =  4
     Message from routine setup:
     using ibrav=0 with symmetry is DISCOURAGED, use correct ibrav instead

     Subspace diagonalization in iterative solution of the eigenvalue problem:
     a serial algorithm will be used


     G-vector sticks info
     --------------------
     sticks:   dense  smooth     PW     G-vecs:    dense   smooth      PW
     Sum          85      85     37                  459      459     137

     Using Slab Decomposition



     bravais-lattice index     =            0
     lattice parameter (alat)  =       7.5604  a.u.
     unit-cell volume          =     305.5804 (a.u.)^3
     number of atoms/cell      =            2
     number of atomic types    =            1
     number of electrons       =        28.00
     number of Kohn-Sham states=           14
     kinetic-energy cutoff     =       5.0000  Ry
     charge density cutoff     =      20.0000  Ry
     scf convergence threshold =      1.0E-07
     mixing beta               =       0.5000
     number of iterations used =            8  plain     mixing
     Exchange-correlation=  SLA  PZ   NOGX NOGC
                           (   1   1   0   0   0   0   0)

     celldm(1)=   7.560435  celldm(2)=   0.000000  celldm(3)=   0.000000
     celldm(4)=   0.000000  celldm(5)=   0.000000  celldm(6)=   0.000000

     crystal axes: (cart. coord. in units of alat)
               a(1) = (   0.000000   0.707107   0.707107 )  
               a(2) = (   0.707107   0.000000   0.707107 )  
               a(3) = (   0.707107   0.707107   0.000000 )  

     reciprocal axes: (cart. coord. in units 2 pi/alat)
               b(1) = ( -0.707107  0.707107  0.707107 )  
               b(2) = (  0.707107 -0.707107  0.707107 )  
               b(3) = (  0.707107  0.707107 -0.707107 )  


     PseudoPot. # 1 for Ge read from file:
     /home/bond/Software/QE/qe-7.4.1/pseudo/ge_lda_v1.4.uspp.F.UPF
     MD5 check sum: bf9d52b59cc8a669818bb2b52e0c2ba0
     Pseudo is Ultrasoft + core correction, Zval = 14.0
     Generated by new atomic code, or converted to UPF format
     Using radial grid of  873 points,  6 beta functions with: 
                l(1) =   0
                l(2) =   0
                l(3) =   1
                l(4) =   1
                l(5) =   2
                l(6) =   2
     Q(r) pseudized with  8 coefficients,  rinner =    1.400   1.400   1.400
                                                       1.400   1.400

     atomic species   valence    mass     pseudopotential
     Ge               14.00    72.63000     Ge( 1.00)

     48 Sym. Ops., with inversion, found (24 have fractional translation)



   Cartesian axes

     site n.     atom                  positions (alat units)
         1        Ge     tau(   1) = (   0.0000000   0.0000000   0.0000000  )
         2        Ge     tau(   2) = (   0.3535534   0.3535534   0.3535534  )

     number of k points=     8
                       cart. coord. in units 2pi/alat
        k(    1) = (   0.0000000   0.0000000   0.0000000), wk =   0.0312500
        k(    2) = (   0.1767767   0.1767767  -0.1767767), wk =   0.2500000
        k(    3) = (  -0.3535534  -0.3535534   0.3535534), wk =   0.1250000
        k(    4) = (   0.3535534   0.0000000   0.0000000), wk =   0.1875000
        k(    5) = (  -0.1767767  -0.5303301   0.5303301), wk =   0.7500000
        k(    6) = (   0.0000000  -0.3535534   0.3535534), wk =   0.3750000
        k(    7) = (  -0.7071068   0.0000000   0.0000000), wk =   0.0937500
        k(    8) = (  -0.7071068   0.3535534   0.0000000), wk =   0.1875000

     Dense  grid:      459 G-vectors     FFT dimensions: (  12,  12,  12)

     Estimated max dynamical RAM per process >       2.22 MB

     Check: negative core charge=   -0.049050

     Initial potential from superposition of free atoms

     starting charge      27.9986, renormalised to      28.0000

     negative rho (up, down):  4.511E+00 0.000E+00
     Starting wfcs are   18 randomized atomic wfcs

     total cpu time spent up to now is        0.3 secs

     Self-consistent Calculation

     iteration #  1     ecut=     5.00 Ry     beta= 0.50
     Davidson diagonalization with overlap
     ethr =  1.00E-02,  avg # of iterations =  5.0

     negative rho (up, down):  4.858E-01 0.000E+00

     total cpu time spent up to now is        0.3 secs

     total energy              =    -278.17814793 Ry
     estimated scf accuracy    <     144.63310853 Ry

     iteration #  2     ecut=     5.00 Ry     beta= 0.50
     Davidson diagonalization with overlap
     ethr =  1.00E-02,  avg # of iterations =  5.5

     negative rho (up, down):  1.346E-01 0.000E+00

     total cpu time spent up to now is        0.4 secs

     total energy              =    -271.80156366 Ry
     estimated scf accuracy    <      22.95303737 Ry

     iteration #  3     ecut=     5.00 Ry     beta= 0.50
     Davidson diagonalization with overlap
     ethr =  1.00E-02,  avg # of iterations =  2.0

     negative rho (up, down):  4.211E-02 0.000E+00

     total cpu time spent up to now is        0.4 secs

     total energy              =    -270.53402273 Ry
     estimated scf accuracy    <       1.89722675 Ry

     iteration #  4     ecut=     5.00 Ry     beta= 0.50
     Davidson diagonalization with overlap
     ethr =  6.78E-03,  avg # of iterations =  1.1

     negative rho (up, down):  2.142E-02 0.000E+00

     total cpu time spent up to now is        0.4 secs

     total energy              =    -270.60134550 Ry
     estimated scf accuracy    <       0.01065298 Ry

     iteration #  5     ecut=     5.00 Ry     beta= 0.50
     Davidson diagonalization with overlap
     ethr =  3.80E-05,  avg # of iterations =  6.2

     negative rho (up, down):  2.443E-02 0.000E+00

     total cpu time spent up to now is        0.5 secs

     total energy              =    -270.71516647 Ry
     estimated scf accuracy    <       0.00515612 Ry

     iteration #  6     ecut=     5.00 Ry     beta= 0.50
     Davidson diagonalization with overlap
     ethr =  1.84E-05,  avg # of iterations =  2.6

     negative rho (up, down):  2.598E-02 0.000E+00

     total cpu time spent up to now is        0.5 secs

     total energy              =    -270.71511143 Ry
     estimated scf accuracy    <       0.00089570 Ry

     iteration #  7     ecut=     5.00 Ry     beta= 0.50
     Davidson diagonalization with overlap
     ethr =  3.20E-06,  avg # of iterations =  3.4

     negative rho (up, down):  2.661E-02 0.000E+00

     total cpu time spent up to now is        0.5 secs

     total energy              =    -270.71530830 Ry
     estimated scf accuracy    <       0.00004787 Ry

     iteration #  8     ecut=     5.00 Ry     beta= 0.50
     Davidson diagonalization with overlap
     ethr =  1.71E-07,  avg # of iterations =  3.2

     negative rho (up, down):  2.689E-02 0.000E+00

     total cpu time spent up to now is        0.5 secs

     total energy              =    -270.71530290 Ry
     estimated scf accuracy    <       0.00001521 Ry

     iteration #  9     ecut=     5.00 Ry     beta= 0.50
     Davidson diagonalization with overlap
     ethr =  5.43E-08,  avg # of iterations =  3.4

     negative rho (up, down):  2.686E-02 0.000E+00

     total cpu time spent up to now is        0.6 secs

     total energy              =    -270.71530768 Ry
     estimated scf accuracy    <       0.00000031 Ry

     iteration # 10     ecut=     5.00 Ry     beta= 0.50
     Davidson diagonalization with overlap
     ethr =  1.12E-09,  avg # of iterations =  4.2

     negative rho (up, down):  2.684E-02 0.000E+00

     total cpu time spent up to now is        0.6 secs

     total energy              =    -270.71530781 Ry
     estimated scf accuracy    <       0.00000012 Ry

     iteration # 11     ecut=     5.00 Ry     beta= 0.50
     Davidson diagonalization with overlap
     ethr =  4.29E-10,  avg # of iterations =  3.1

     negative rho (up, down):  2.684E-02 0.000E+00

     total cpu time spent up to now is        0.6 secs

     End of self-consistent calculation

          k = 0.0000 0.0000 0.0000 (    59 PWs)   bands (ev):

   -40.3461 -38.4454 -14.9497 -14.9497 -14.9497 -11.7240 -11.7240 -11.7240
    14.3715  15.3903  15.3903  17.2189  17.2189  17.2189

          k = 0.1768 0.1768-0.1768 (    61 PWs)   bands (ev):

   -41.0395 -38.0228 -15.1619 -15.1619 -14.3151 -13.0615 -13.0615 -11.5166
    15.2102  15.2640  15.2640  17.3639  17.6668  17.6668

          k =-0.3536-0.3536 0.3536 (    52 PWs)   bands (ev):

   -39.7978 -35.4928 -13.0508 -12.0511 -12.0511 -10.8164 -10.8164  -5.4664
    16.0002  16.8571  16.8571  17.2049  17.2049  17.2741

          k = 0.3536 0.0000 0.0000 (    60 PWs)   bands (ev):

   -40.3683 -38.4299 -15.0969 -15.0969 -14.6375 -13.5221 -11.1802 -11.1802
    14.2428  15.6960  16.4216  17.3155  17.3155  17.5853

          k =-0.1768-0.5303 0.5303 (    57 PWs)   bands (ev):

   -39.1752 -37.9179 -13.9427 -13.2101 -12.0673 -11.4640 -10.4645 -10.4421
    14.6187  15.4633  15.7073  18.0414  18.0886  18.9204

          k = 0.0000-0.3536 0.3536 (    57 PWs)   bands (ev):

   -39.8733 -37.4112 -14.3338 -13.7805 -12.6480 -11.8245 -11.6835  -9.1191
    15.0331  15.6218  15.8126  17.7703  18.3819  18.5228

          k =-0.7071 0.0000 0.0000 (    64 PWs)   bands (ev):

   -39.7209 -39.7209 -15.6219 -15.6219 -13.1751 -13.1751 -11.5623 -11.5623
    14.7481  14.7481  15.3784  15.3784  16.7159  16.7159

          k =-0.7071 0.3536 0.0000 (    56 PWs)   bands (ev):

   -38.6156 -38.6156 -12.7461 -12.7461 -11.8750 -11.8750 -10.7685 -10.7685
    14.7357  14.7357  17.5652  17.5652  19.1996  19.1996

     highest occupied level (ev):    19.1996

!    total energy              =    -270.71530784 Ry
     estimated scf accuracy    <          9.1E-10 Ry

     The total energy is the sum of the following terms:
     one-electron contribution =     -14.32022735 Ry
     hartree contribution      =      21.40279047 Ry
     xc contribution           =     -80.30339592 Ry
     ewald contribution        =    -197.49447504 Ry

     convergence has been achieved in  11 iterations

     negative rho (up, down):  2.684E-02 0.000E+00

     Forces acting on atoms (cartesian axes, Ry/au):

     atom    1 type  1   force =    -0.00000000    0.00000000    0.00000000
     atom    2 type  1   force =    -0.00000000    0.00000000    0.00000000

     Total force =     0.000000     Total SCF correction =     0.000000


     Computing stress (Cartesian axis) and pressure


     negative rho (up, down):  2.684E-02 0.000E+00
          total   stress  (Ry/bohr**3)                   (kbar)     P=   -13899.32
  -0.09448563   0.00000000   0.00000000       -13899.32        0.00        0.00
   0.00000000  -0.09448563  -0.00000000            0.00   -13899.32       -0.00
  -0.00000000  -0.00000000  -0.09448563           -0.00       -0.00   -13899.32

     Message from routine punch:
     Nothing written, as per user request (disk_io='none')

     init_run     :      0.13s CPU      0.14s WALL (       1 calls)
     electrons    :      0.30s CPU      0.33s WALL (       1 calls)
     forces       :      0.00s CPU      0.00s WALL (       1 calls)
     stress       :      0.03s CPU      0.03s WALL (       1 calls)

     Called by init_run:
     wfcinit      :      0.01s CPU      0.02s WALL (       1 calls)
     potinit      :      0.00s CPU      0.00s WALL (       1 calls)
     hinit0       :      0.11s CPU      0.11s WALL (       1 calls)

     Called by electrons:
     c_bands      :      0.24s CPU      0.26s WALL (      11 calls)
     sum_band     :      0.04s CPU      0.04s WALL (      11 calls)
     v_of_rho     :      0.00s CPU      0.00s WALL (      12 calls)
     newd         :      0.02s CPU      0.02s WALL (      12 calls)
     mix_rho      :      0.00s CPU      0.00s WALL (      11 calls)

     Called by c_bands:
     init_us_2    :      0.01s CPU      0.01s WALL (     200 calls)
     cegterg      :      0.22s CPU      0.24s WALL (      88 calls)

     Called by *egterg:
     cdiaghg      :      0.10s CPU      0.11s WALL (     407 calls)
     h_psi        :      0.11s CPU      0.12s WALL (     415 calls)
     s_psi        :      0.01s CPU      0.01s WALL (     415 calls)
     g_psi        :      0.00s CPU      0.00s WALL (     319 calls)

     Called by h_psi:
     h_psi:calbec :      0.01s CPU      0.01s WALL (     415 calls)
     vloc_psi     :      0.09s CPU      0.10s WALL (     415 calls)
     add_vuspsi   :      0.01s CPU      0.01s WALL (     415 calls)

     General routines
     calbec       :      0.01s CPU      0.01s WALL (     639 calls)
     fft          :      0.03s CPU      0.03s WALL (      56 calls)
     ffts         :      0.00s CPU      0.00s WALL (      11 calls)
     fftw         :      0.07s CPU      0.08s WALL (    8408 calls)

     Parallel routines

     PWSCF        :      0.62s CPU      0.68s WALL


   This run was terminated on:  23:57:13   7Oct2025            

=------------------------------------------------------------------------------=
   JOB DONE.
=------------------------------------------------------------------------------=
