
     Program PWSCF v.7.4.1 starts on 21Oct2025 at  1:24:17 

     This program is part of the open-source Quantum ESPRESSO suite
     for quantum simulation of materials; please cite
         "P. Giannozzi et al., J. Phys.:Condens. Matter 21 395502 (2009);
         "P. Giannozzi et al., J. Phys.:Condens. Matter 29 465901 (2017);
         "P. Giannozzi et al., J. Chem. Phys. 152 154105 (2020);
          URL http://www.quantum-espresso.org", 
     in publications or presentations arising from this work. More details at
     http://www.quantum-espresso.org/quote

     Parallel version (MPI), running on     2 processors

     MPI processes distributed on     1 nodes
     138 MiB available memory on the printing compute node when the environment starts

     Waiting for input...
     Reading input from standard input

     Current dimensions of program PWSCF are:
     Max number of different atomic species (ntypx) = 10
     Max number of k-points (npk) =  40000
     Max angular momentum in pseudopotentials (lmaxx) =  4
     file Fe.pbe-nd-rrkjus.UPF: wavefunction(s)  4S renormalized
     file Fe.pbe-nd-rrkjus.UPF: wavefunction(s)  4S renormalized
     Message from routine setup:
     using ibrav=0 with symmetry is DISCOURAGED, use correct ibrav instead

     R & G space division:  proc/nbgrp/npool/nimage =       2
     Subspace diagonalization in iterative solution of the eigenvalue problem:
     a serial algorithm will be used


     Parallelization info
     --------------------
     sticks:   dense  smooth     PW     G-vecs:    dense   smooth      PW
     Min         310     120     44                 5816     1470     308
     Max         311     121     45                 5817     1475     311
     Sum         621     241     89                11633     2945     619

     Using Slab Decomposition



     bravais-lattice index     =            0
     lattice parameter (alat)  =       5.1023  a.u.
     unit-cell volume          =     132.8275 (a.u.)^3
     number of atoms/cell      =            2
     number of atomic types    =            2
     number of electrons       =        16.00
     number of Kohn-Sham states=           12
     kinetic-energy cutoff     =      30.0000  Ry
     charge density cutoff     =     300.0000  Ry
     scf convergence threshold =      1.0E-07
     mixing beta               =       0.5000
     number of iterations used =            8  plain     mixing
     energy convergence thresh.=      1.0E-04
     force convergence thresh. =      1.0E-03
     press convergence thresh. =      5.0E-01
     Exchange-correlation=  SLA  PW   PBE  PBE
                           (   1   4   3   4   0   0   0)
     nstep                     =           50


     celldm(1)=   5.102261  celldm(2)=   0.000000  celldm(3)=   0.000000
     celldm(4)=   0.000000  celldm(5)=   0.000000  celldm(6)=   0.000000

     crystal axes: (cart. coord. in units of alat)
               a(1) = (   1.000000   0.000000   0.000000 )  
               a(2) = (   0.000000   1.000000   0.000000 )  
               a(3) = (   0.000000   0.000000   1.000000 )  

     reciprocal axes: (cart. coord. in units 2 pi/alat)
               b(1) = (  1.000000  0.000000  0.000000 )  
               b(2) = (  0.000000  1.000000  0.000000 )  
               b(3) = (  0.000000  0.000000  1.000000 )  


     PseudoPot. # 1 for Fe read from file:
     /home/bond/Software/QE/qe-7.4.1/pseudo/Fe.pbe-nd-rrkjus.UPF
     MD5 check sum: 398036227a04b607635f6f5e8dfd8242
     Pseudo is Ultrasoft + core correction, Zval =  8.0
     Generated by new atomic code, or converted to UPF format
     Using radial grid of  957 points,  6 beta functions with: 
                l(1) =   0
                l(2) =   0
                l(3) =   1
                l(4) =   1
                l(5) =   2
                l(6) =   2
     Q(r) pseudized with 0 coefficients 


     PseudoPot. # 2 for Fe read from file:
     /home/bond/Software/QE/qe-7.4.1/pseudo/Fe.pbe-nd-rrkjus.UPF
     MD5 check sum: 398036227a04b607635f6f5e8dfd8242
     Pseudo is Ultrasoft + core correction, Zval =  8.0
     Generated by new atomic code, or converted to UPF format
     Using radial grid of  957 points,  6 beta functions with: 
                l(1) =   0
                l(2) =   0
                l(3) =   1
                l(4) =   1
                l(5) =   2
                l(6) =   2
     Q(r) pseudized with 0 coefficients 


     atomic species   valence    mass     pseudopotential
     Co                8.00    58.93319     Fe( 1.00)
     Fe                8.00    55.84500     Fe( 1.00)

     Starting magnetic structure 
     atomic species   magnetization
     Co              0.125
     Fe             -0.125

     48 Sym. Ops., with inversion, found



   Cartesian axes

     site n.     atom                  positions (alat units)
         1        Fe     tau(   1) = (   0.0000000   0.0000000   0.0000000  )
         2        Co     tau(   2) = (   0.5000000   0.5000000   0.5000000  )

     number of k points=   120  Methfessel-Paxton smearing, width (Ry)=  0.0200

     Number of k-points >= 100: set verbosity='high' to print them.

     Dense  grid:    11633 G-vectors     FFT dimensions: (  30,  30,  30)

     Smooth grid:     2945 G-vectors     FFT dimensions: (  18,  18,  18)

     Estimated max dynamical RAM per process >      37.54 MB

     Estimated total dynamical RAM >      75.08 MB

     Check: negative core charge=   -0.000002
     Generating pointlists ...
     new r_m :   0.3572 (alat units)  1.8227 (a.u.) for type    1
     new r_m :   0.3572 (alat units)  1.8227 (a.u.) for type    2

     Initial potential from superposition of free atoms

     starting charge      15.9987, renormalised to      16.0000
     Starting wfcs are   12 randomized atomic wfcs

     total cpu time spent up to now is        2.4 secs

     Self-consistent Calculation

     iteration #  1     ecut=    30.00 Ry     beta= 0.50
     Davidson diagonalization with overlap
     ethr =  1.00E-02,  avg # of iterations =  3.7

     total cpu time spent up to now is        4.6 secs

     total energy              =    -111.34090945 Ry
     estimated scf accuracy    <       0.59613202 Ry

     total magnetization       =    -0.00 Bohr mag/cell
     absolute magnetization    =     1.15 Bohr mag/cell

     iteration #  2     ecut=    30.00 Ry     beta= 0.50
     Davidson diagonalization with overlap
     ethr =  3.73E-03,  avg # of iterations =  2.0

     total cpu time spent up to now is        6.4 secs

     total energy              =    -111.50262760 Ry
     estimated scf accuracy    <       0.03545043 Ry

     total magnetization       =    -0.00 Bohr mag/cell
     absolute magnetization    =     1.41 Bohr mag/cell

     iteration #  3     ecut=    30.00 Ry     beta= 0.50
     Davidson diagonalization with overlap
     ethr =  2.22E-04,  avg # of iterations =  1.7

     total cpu time spent up to now is        8.0 secs

     total energy              =    -111.50841891 Ry
     estimated scf accuracy    <       0.00212460 Ry

     total magnetization       =     0.01 Bohr mag/cell
     absolute magnetization    =     1.38 Bohr mag/cell

     iteration #  4     ecut=    30.00 Ry     beta= 0.50
     Davidson diagonalization with overlap
     ethr =  1.33E-05,  avg # of iterations =  3.7

     total cpu time spent up to now is       10.1 secs

     total energy              =    -111.50927544 Ry
     estimated scf accuracy    <       0.01619857 Ry

     total magnetization       =    -0.02 Bohr mag/cell
     absolute magnetization    =     1.39 Bohr mag/cell

     iteration #  5     ecut=    30.00 Ry     beta= 0.50
     Davidson diagonalization with overlap
     ethr =  1.33E-05,  avg # of iterations =  2.2

     total cpu time spent up to now is       11.9 secs

     total energy              =    -111.51074401 Ry
     estimated scf accuracy    <       0.00145862 Ry

     total magnetization       =    -0.00 Bohr mag/cell
     absolute magnetization    =     1.47 Bohr mag/cell

     iteration #  6     ecut=    30.00 Ry     beta= 0.50
     Davidson diagonalization with overlap
     ethr =  9.12E-06,  avg # of iterations =  1.1

     total cpu time spent up to now is       13.3 secs

     total energy              =    -111.51100884 Ry
     estimated scf accuracy    <       0.00049830 Ry

     total magnetization       =    -0.00 Bohr mag/cell
     absolute magnetization    =     1.50 Bohr mag/cell

     iteration #  7     ecut=    30.00 Ry     beta= 0.50
     Davidson diagonalization with overlap
     ethr =  3.11E-06,  avg # of iterations =  2.0

     total cpu time spent up to now is       15.0 secs

     total energy              =    -111.51129831 Ry
     estimated scf accuracy    <       0.00039144 Ry

     total magnetization       =    -0.00 Bohr mag/cell
     absolute magnetization    =     1.63 Bohr mag/cell

     iteration #  8     ecut=    30.00 Ry     beta= 0.50
     Davidson diagonalization with overlap
     ethr =  2.45E-06,  avg # of iterations =  2.2

     total cpu time spent up to now is       16.8 secs

     total energy              =    -111.51133952 Ry
     estimated scf accuracy    <       0.00029773 Ry

     total magnetization       =    -0.00 Bohr mag/cell
     absolute magnetization    =     1.70 Bohr mag/cell

     iteration #  9     ecut=    30.00 Ry     beta= 0.50
     Davidson diagonalization with overlap
     ethr =  1.86E-06,  avg # of iterations =  3.4

     total cpu time spent up to now is       18.9 secs

     total energy              =    -111.51206631 Ry
     estimated scf accuracy    <       0.00021115 Ry

     total magnetization       =    -0.01 Bohr mag/cell
     absolute magnetization    =     1.91 Bohr mag/cell

     iteration # 10     ecut=    30.00 Ry     beta= 0.50
     Davidson diagonalization with overlap
     ethr =  1.32E-06,  avg # of iterations =  1.2

     total cpu time spent up to now is       20.5 secs

     total energy              =    -111.51181753 Ry
     estimated scf accuracy    <       0.00004937 Ry

     total magnetization       =    -0.01 Bohr mag/cell
     absolute magnetization    =     1.93 Bohr mag/cell

     iteration # 11     ecut=    30.00 Ry     beta= 0.50
     Davidson diagonalization with overlap
     ethr =  3.09E-07,  avg # of iterations =  3.9

     total cpu time spent up to now is       22.6 secs

     total energy              =    -111.51222218 Ry
     estimated scf accuracy    <       0.00000446 Ry

     total magnetization       =    -0.02 Bohr mag/cell
     absolute magnetization    =     2.08 Bohr mag/cell

     iteration # 12     ecut=    30.00 Ry     beta= 0.50
     Davidson diagonalization with overlap
     ethr =  2.79E-08,  avg # of iterations =  5.1

     total cpu time spent up to now is       25.2 secs

     total energy              =    -111.51222686 Ry
     estimated scf accuracy    <       0.00000151 Ry

     total magnetization       =    -0.03 Bohr mag/cell
     absolute magnetization    =     2.06 Bohr mag/cell

     iteration # 13     ecut=    30.00 Ry     beta= 0.50
     Davidson diagonalization with overlap
     ethr =  9.46E-09,  avg # of iterations =  4.5

     total cpu time spent up to now is       27.7 secs

     total energy              =    -111.51222614 Ry
     estimated scf accuracy    <       0.00000724 Ry

     total magnetization       =    -0.01 Bohr mag/cell
     absolute magnetization    =     2.05 Bohr mag/cell

     iteration # 14     ecut=    30.00 Ry     beta= 0.50
     Davidson diagonalization with overlap
     ethr =  9.46E-09,  avg # of iterations =  3.7

     total cpu time spent up to now is       30.0 secs

     total energy              =    -111.51223231 Ry
     estimated scf accuracy    <       0.00000041 Ry

     total magnetization       =    -0.00 Bohr mag/cell
     absolute magnetization    =     2.07 Bohr mag/cell

     iteration # 15     ecut=    30.00 Ry     beta= 0.50
     Davidson diagonalization with overlap
     ethr =  2.57E-09,  avg # of iterations =  3.0

     Magnetic moment per site  (integrated on atomic sphere of radius R)
     atom   1 (R=0.357)  charge=  6.3616  magn= -0.9938
     atom   2 (R=0.357)  charge=  6.3616  magn=  0.9936

     total cpu time spent up to now is       32.0 secs

     End of self-consistent calculation

     Number of k-points >= 100: set verbosity='high' to print the bands.

     the Fermi energy is    16.4503 ev

!    total energy              =    -111.51223322 Ry
     estimated scf accuracy    <       0.00000006 Ry
     smearing contrib. (-TS)   =       0.00020063 Ry
     internal energy E=F+TS    =    -111.51243385 Ry

     The total energy is F=E-TS. E is the sum of the following terms:
     one-electron contribution =      21.24516996 Ry
     hartree contribution      =      11.42673517 Ry
     xc contribution           =     -52.88718192 Ry
     ewald contribution        =     -91.29715706 Ry

     total magnetization       =    -0.00 Bohr mag/cell
     absolute magnetization    =     2.07 Bohr mag/cell

     convergence has been achieved in  15 iterations

     Forces acting on atoms (cartesian axes, Ry/au):

     atom    1 type  2   force =     0.00000000    0.00000000    0.00000000
     atom    2 type  1   force =     0.00000000    0.00000000    0.00000000

     Total force =     0.000000     Total SCF correction =     0.000000


     Computing stress (Cartesian axis) and pressure

          total   stress  (Ry/bohr**3)                   (kbar)     P=      267.61
   0.00181920   0.00000000   0.00000000          267.61        0.00        0.00
   0.00000000   0.00181920   0.00000000            0.00      267.61        0.00
   0.00000000   0.00000000   0.00181920            0.00        0.00      267.61


     BFGS Geometry Optimization
     Energy error            =      3.1E-02 Ry
     Gradient error          =      0.0E+00 Ry/Bohr
     Cell gradient error     =      2.7E+02 kbar

     number of scf cycles    =   1
     number of bfgs steps    =   0

     enthalpy           new  =    -111.5122332186 Ry

     new trust radius        =       0.1048320143 bohr
     new conv_thr            =       0.0000001000 Ry

     new unit-cell volume =    151.78715 a.u.^3 (    22.49254 Ang^3 )
     density =      8.47364 g/cm^3

CELL_PARAMETERS (angstrom)
   2.822795868   0.000000000   0.000000000
   0.000000000   2.822795868   0.000000000
   0.000000000   0.000000000   2.822795868

ATOMIC_POSITIONS (angstrom)
Fe               0.0000000000        0.0000000000        0.0000000000
Co               1.4113979339        1.4113979339        1.4113979339


     Message from routine punch:
     Nothing written, as per user request (disk_io='none')
     NEW-OLD atomic charge density approx. for the potential
     New effective cutoffs (rho, wfc):  273.32   27.44

     Check: negative core charge=   -0.000004
     Generating pointlists ...

     total cpu time spent up to now is       33.2 secs

     Self-consistent Calculation

     iteration #  1     ecut=    30.00 Ry     beta= 0.50
     Davidson diagonalization with overlap
     ethr =  1.00E-06,  avg # of iterations =  7.3

     total cpu time spent up to now is       37.4 secs

     total energy              =    -111.52133267 Ry
     estimated scf accuracy    <       0.00187782 Ry

     total magnetization       =    -0.00 Bohr mag/cell
     absolute magnetization    =     2.36 Bohr mag/cell

     iteration #  2     ecut=    30.00 Ry     beta= 0.50
     Davidson diagonalization with overlap
     ethr =  1.17E-05,  avg # of iterations =  1.2

     total cpu time spent up to now is       38.9 secs

     total energy              =    -111.52224679 Ry
     estimated scf accuracy    <       0.00145698 Ry

     total magnetization       =    -0.00 Bohr mag/cell
     absolute magnetization    =     2.50 Bohr mag/cell

     iteration #  3     ecut=    30.00 Ry     beta= 0.50
     Davidson diagonalization with overlap
     ethr =  9.11E-06,  avg # of iterations =  1.3

     total cpu time spent up to now is       40.7 secs

     total energy              =    -111.52245956 Ry
     estimated scf accuracy    <       0.00222891 Ry

     total magnetization       =     0.02 Bohr mag/cell
     absolute magnetization    =     2.59 Bohr mag/cell

     iteration #  4     ecut=    30.00 Ry     beta= 0.50
     Davidson diagonalization with overlap
     ethr =  9.11E-06,  avg # of iterations =  1.1

     total cpu time spent up to now is       42.2 secs

     total energy              =    -111.52021361 Ry
     estimated scf accuracy    <       0.00278115 Ry

     total magnetization       =    -0.03 Bohr mag/cell
     absolute magnetization    =     2.63 Bohr mag/cell

     iteration #  5     ecut=    30.00 Ry     beta= 0.50
     Davidson diagonalization with overlap
     ethr =  9.11E-06,  avg # of iterations =  3.8

     total cpu time spent up to now is       44.3 secs

     total energy              =    -111.52556502 Ry
     estimated scf accuracy    <       0.00024306 Ry

     total magnetization       =    -0.01 Bohr mag/cell
     absolute magnetization    =     3.25 Bohr mag/cell

     iteration #  6     ecut=    30.00 Ry     beta= 0.50
     Davidson diagonalization with overlap
     ethr =  1.52E-06,  avg # of iterations =  2.5

     total cpu time spent up to now is       46.3 secs

     total energy              =    -111.52492004 Ry
     estimated scf accuracy    <       0.00034867 Ry

     total magnetization       =    -0.00 Bohr mag/cell
     absolute magnetization    =     3.24 Bohr mag/cell

     iteration #  7     ecut=    30.00 Ry     beta= 0.50
     Davidson diagonalization with overlap
     ethr =  1.52E-06,  avg # of iterations =  4.0

     total cpu time spent up to now is       48.6 secs

     total energy              =    -111.52615745 Ry
     estimated scf accuracy    <       0.00003327 Ry

     total magnetization       =    -0.01 Bohr mag/cell
     absolute magnetization    =     3.54 Bohr mag/cell

     iteration #  8     ecut=    30.00 Ry     beta= 0.50
     Davidson diagonalization with overlap
     ethr =  2.08E-07,  avg # of iterations =  2.2

     total cpu time spent up to now is       50.4 secs

     total energy              =    -111.52606947 Ry
     estimated scf accuracy    <       0.00001454 Ry

     total magnetization       =    -0.01 Bohr mag/cell
     absolute magnetization    =     3.50 Bohr mag/cell

     iteration #  9     ecut=    30.00 Ry     beta= 0.50
     Davidson diagonalization with overlap
     ethr =  9.09E-08,  avg # of iterations =  4.5

     total cpu time spent up to now is       52.8 secs

     total energy              =    -111.52623294 Ry
     estimated scf accuracy    <       0.00000206 Ry

     total magnetization       =    -0.01 Bohr mag/cell
     absolute magnetization    =     3.61 Bohr mag/cell

     iteration # 10     ecut=    30.00 Ry     beta= 0.50
     Davidson diagonalization with overlap
     ethr =  1.29E-08,  avg # of iterations =  4.6

     total cpu time spent up to now is       55.2 secs

     total energy              =    -111.52624737 Ry
     estimated scf accuracy    <       0.00000255 Ry

     total magnetization       =    -0.01 Bohr mag/cell
     absolute magnetization    =     3.57 Bohr mag/cell

     iteration # 11     ecut=    30.00 Ry     beta= 0.50
     Davidson diagonalization with overlap
     ethr =  1.29E-08,  avg # of iterations =  3.8

     total cpu time spent up to now is       57.4 secs

     total energy              =    -111.52624400 Ry
     estimated scf accuracy    <       0.00000039 Ry

     total magnetization       =    -0.01 Bohr mag/cell
     absolute magnetization    =     3.60 Bohr mag/cell

     iteration # 12     ecut=    30.00 Ry     beta= 0.50
     Davidson diagonalization with overlap
     ethr =  2.46E-09,  avg # of iterations =  5.1

     total cpu time spent up to now is       60.0 secs

     total energy              =    -111.52625054 Ry
     estimated scf accuracy    <       0.00000072 Ry

     total magnetization       =    -0.01 Bohr mag/cell
     absolute magnetization    =     3.57 Bohr mag/cell

     iteration # 13     ecut=    30.00 Ry     beta= 0.50
     Davidson diagonalization with overlap
     ethr =  2.46E-09,  avg # of iterations =  4.5

     Magnetic moment per site  (integrated on atomic sphere of radius R)
     atom   1 (R=0.357)  charge=  6.2101  magn= -1.7037
     atom   2 (R=0.357)  charge=  6.2102  magn=  1.7031

     total cpu time spent up to now is       62.5 secs

     End of self-consistent calculation

     Number of k-points >= 100: set verbosity='high' to print the bands.

     the Fermi energy is    14.0793 ev

!    total energy              =    -111.52625581 Ry
     estimated scf accuracy    <       0.00000005 Ry
     smearing contrib. (-TS)   =      -0.00042063 Ry
     internal energy E=F+TS    =    -111.52583517 Ry

     The total energy is F=E-TS. E is the sum of the following terms:
     one-electron contribution =      15.74634225 Ry
     hartree contribution      =      12.81437449 Ry
     xc contribution           =     -52.76095857 Ry
     ewald contribution        =     -87.32559335 Ry

     total magnetization       =    -0.00 Bohr mag/cell
     absolute magnetization    =     3.59 Bohr mag/cell

     convergence has been achieved in  13 iterations

     Forces acting on atoms (cartesian axes, Ry/au):

     atom    1 type  2   force =     0.00000000    0.00000000    0.00000000
     atom    2 type  1   force =     0.00000000    0.00000000    0.00000000

     Total force =     0.000000     Total SCF correction =     0.000000


     Computing stress (Cartesian axis) and pressure

          total   stress  (Ry/bohr**3)                   (kbar)     P=       -0.58
  -0.00000397   0.00000000   0.00000000           -0.58        0.00        0.00
   0.00000000  -0.00000397   0.00000000            0.00       -0.58        0.00
   0.00000000   0.00000000  -0.00000397            0.00        0.00       -0.58

     Energy error            =      1.4E-02 Ry
     Gradient error          =      0.0E+00 Ry/Bohr
     Cell gradient error     =      5.8E-01 kbar

     number of scf cycles    =   2
     number of bfgs steps    =   1

     enthalpy           old  =    -111.5122332186 Ry
     enthalpy           new  =    -111.5262558070 Ry

     CASE: enthalpy          _new < enthalpy          _old

     new trust radius        =       0.0002548129 bohr
     new conv_thr            =       0.0000000010 Ry

     new unit-cell volume =    151.74007 a.u.^3 (    22.48556 Ang^3 )
     density =      8.47627 g/cm^3

CELL_PARAMETERS (angstrom)
   2.822503955   0.000000000   0.000000000
   0.000000000   2.822503955   0.000000000
   0.000000000   0.000000000   2.822503955

ATOMIC_POSITIONS (angstrom)
Fe               0.0000000000        0.0000000000        0.0000000000
Co               1.4112519774        1.4112519774        1.4112519774


     Message from routine punch:
     Nothing written, as per user request (disk_io='none')
     NEW-OLD atomic charge density approx. for the potential
     New effective cutoffs (rho, wfc):  273.38   27.45

     Check: negative core charge=   -0.000004
     Generating pointlists ...

     total cpu time spent up to now is       63.7 secs

     Self-consistent Calculation

     iteration #  1     ecut=    30.00 Ry     beta= 0.50
     Davidson diagonalization with overlap
     ethr =  1.00E-06,  avg # of iterations =  2.0

     Threshold (ethr) on eigenvalues was too large:
     Diagonalizing with lowered threshold

     Davidson diagonalization with overlap
     ethr =  1.16E-09,  avg # of iterations =  1.9

     total cpu time spent up to now is       67.6 secs

     total energy              =    -111.52625569 Ry
     estimated scf accuracy    <       0.00000019 Ry

     total magnetization       =    -0.00 Bohr mag/cell
     absolute magnetization    =     3.59 Bohr mag/cell

     iteration #  2     ecut=    30.00 Ry     beta= 0.50
     Davidson diagonalization with overlap
     ethr =  1.17E-09,  avg # of iterations =  3.7

     total cpu time spent up to now is       69.7 secs

     total energy              =    -111.52625520 Ry
     estimated scf accuracy    <       0.00001402 Ry

     total magnetization       =    -0.00 Bohr mag/cell
     absolute magnetization    =     3.59 Bohr mag/cell

     iteration #  3     ecut=    30.00 Ry     beta= 0.50
     Davidson diagonalization with overlap
     ethr =  1.17E-09,  avg # of iterations =  3.5

     total cpu time spent up to now is       71.7 secs

     total energy              =    -111.52625581 Ry
     estimated scf accuracy    <       0.00000001 Ry

     total magnetization       =    -0.00 Bohr mag/cell
     absolute magnetization    =     3.59 Bohr mag/cell

     iteration #  4     ecut=    30.00 Ry     beta= 0.50
     Davidson diagonalization with overlap
     ethr =  9.20E-11,  avg # of iterations =  3.4

     total cpu time spent up to now is       73.6 secs

     total energy              =    -111.52625581 Ry
     estimated scf accuracy    <          8.0E-09 Ry

     total magnetization       =    -0.00 Bohr mag/cell
     absolute magnetization    =     3.59 Bohr mag/cell

     iteration #  5     ecut=    30.00 Ry     beta= 0.50
     Davidson diagonalization with overlap
     ethr =  4.99E-11,  avg # of iterations =  2.4

     total cpu time spent up to now is       75.4 secs

     total energy              =    -111.52625583 Ry
     estimated scf accuracy    <          8.7E-09 Ry

     total magnetization       =    -0.00 Bohr mag/cell
     absolute magnetization    =     3.59 Bohr mag/cell

     iteration #  6     ecut=    30.00 Ry     beta= 0.50
     Davidson diagonalization with overlap
     ethr =  4.99E-11,  avg # of iterations =  1.0

     total cpu time spent up to now is       76.9 secs

     total energy              =    -111.52625582 Ry
     estimated scf accuracy    <          7.4E-09 Ry

     total magnetization       =    -0.00 Bohr mag/cell
     absolute magnetization    =     3.59 Bohr mag/cell

     iteration #  7     ecut=    30.00 Ry     beta= 0.50
     Davidson diagonalization with overlap
     ethr =  4.65E-11,  avg # of iterations =  1.5

     total cpu time spent up to now is       78.4 secs

     total energy              =    -111.52625582 Ry
     estimated scf accuracy    <          4.5E-09 Ry

     total magnetization       =    -0.00 Bohr mag/cell
     absolute magnetization    =     3.59 Bohr mag/cell

     iteration #  8     ecut=    30.00 Ry     beta= 0.50
     Davidson diagonalization with overlap
     ethr =  2.82E-11,  avg # of iterations =  1.2

     total cpu time spent up to now is       80.0 secs

     total energy              =    -111.52625582 Ry
     estimated scf accuracy    <          3.0E-09 Ry

     total magnetization       =    -0.00 Bohr mag/cell
     absolute magnetization    =     3.59 Bohr mag/cell

     iteration #  9     ecut=    30.00 Ry     beta= 0.50
     Davidson diagonalization with overlap
     ethr =  1.90E-11,  avg # of iterations =  2.2

     total cpu time spent up to now is       82.0 secs

     total energy              =    -111.52625582 Ry
     estimated scf accuracy    <          1.5E-09 Ry

     total magnetization       =    -0.00 Bohr mag/cell
     absolute magnetization    =     3.59 Bohr mag/cell

     iteration # 10     ecut=    30.00 Ry     beta= 0.50
     Davidson diagonalization with overlap
     ethr =  9.42E-12,  avg # of iterations =  2.8

     Magnetic moment per site  (integrated on atomic sphere of radius R)
     atom   1 (R=0.357)  charge=  6.2105  magn= -1.7026
     atom   2 (R=0.357)  charge=  6.2105  magn=  1.7026

     total cpu time spent up to now is       83.8 secs

     End of self-consistent calculation

     Number of k-points >= 100: set verbosity='high' to print the bands.

     the Fermi energy is    14.0843 ev

!    total energy              =    -111.52625582 Ry
     estimated scf accuracy    <          4.4E-10 Ry
     smearing contrib. (-TS)   =      -0.00041960 Ry
     internal energy E=F+TS    =    -111.52583622 Ry

     The total energy is F=E-TS. E is the sum of the following terms:
     one-electron contribution =      15.75883155 Ry
     hartree contribution      =      12.81131679 Ry
     xc contribution           =     -52.76135971 Ry
     ewald contribution        =     -87.33462486 Ry

     total magnetization       =     0.00 Bohr mag/cell
     absolute magnetization    =     3.59 Bohr mag/cell

     convergence has been achieved in  10 iterations

     Forces acting on atoms (cartesian axes, Ry/au):

     atom    1 type  2   force =     0.00000000    0.00000000    0.00000000
     atom    2 type  1   force =     0.00000000    0.00000000    0.00000000

     Total force =     0.000000     Total SCF correction =     0.000000


     Computing stress (Cartesian axis) and pressure

          total   stress  (Ry/bohr**3)                   (kbar)     P=        0.60
   0.00000406   0.00000000   0.00000000            0.60        0.00        0.00
   0.00000000   0.00000406   0.00000000            0.00        0.60        0.00
   0.00000000   0.00000000   0.00000406            0.00        0.00        0.60

     Energy error            =      1.5E-08 Ry
     Gradient error          =      0.0E+00 Ry/Bohr
     Cell gradient error     =      6.0E-01 kbar

     number of scf cycles    =   3
     number of bfgs steps    =   2

     enthalpy           old  =    -111.5262558070 Ry
     enthalpy           new  =    -111.5262558220 Ry

     CASE: enthalpy          _new < enthalpy          _old

     new trust radius        =       0.0001288805 bohr
     new conv_thr            =       0.0000000010 Ry

     new unit-cell volume =    151.76388 a.u.^3 (    22.48909 Ang^3 )
     density =      8.47494 g/cm^3

CELL_PARAMETERS (angstrom)
   2.822651608   0.000000000   0.000000000
   0.000000000   2.822651608   0.000000000
   0.000000000   0.000000000   2.822651608

ATOMIC_POSITIONS (angstrom)
Fe               0.0000000000        0.0000000000        0.0000000000
Co               1.4113258038        1.4113258038        1.4113258038


     Message from routine punch:
     Nothing written, as per user request (disk_io='none')
     NEW-OLD atomic charge density approx. for the potential
     New effective cutoffs (rho, wfc):  273.35   27.45

     Check: negative core charge=   -0.000004
     Generating pointlists ...

     total cpu time spent up to now is       85.0 secs

     Self-consistent Calculation

     iteration #  1     ecut=    30.00 Ry     beta= 0.50
     Davidson diagonalization with overlap
     ethr =  1.00E-06,  avg # of iterations =  2.0

     Threshold (ethr) on eigenvalues was too large:
     Diagonalizing with lowered threshold

     Davidson diagonalization with overlap
     ethr =  1.81E-10,  avg # of iterations =  1.9

     total cpu time spent up to now is       88.9 secs

     total energy              =    -111.52625584 Ry
     estimated scf accuracy    <       0.00000003 Ry

     total magnetization       =    -0.00 Bohr mag/cell
     absolute magnetization    =     3.59 Bohr mag/cell

     iteration #  2     ecut=    30.00 Ry     beta= 0.50
     Davidson diagonalization with overlap
     ethr =  1.82E-10,  avg # of iterations =  3.6

     total cpu time spent up to now is       91.2 secs

     total energy              =    -111.52625577 Ry
     estimated scf accuracy    <       0.00000185 Ry

     total magnetization       =     0.00 Bohr mag/cell
     absolute magnetization    =     3.59 Bohr mag/cell

     iteration #  3     ecut=    30.00 Ry     beta= 0.50
     Davidson diagonalization with overlap
     ethr =  1.82E-10,  avg # of iterations =  3.4

     total cpu time spent up to now is       93.5 secs

     total energy              =    -111.52625585 Ry
     estimated scf accuracy    <          4.4E-09 Ry

     total magnetization       =    -0.00 Bohr mag/cell
     absolute magnetization    =     3.59 Bohr mag/cell

     iteration #  4     ecut=    30.00 Ry     beta= 0.50
     Davidson diagonalization with overlap
     ethr =  2.75E-11,  avg # of iterations =  1.7

     total cpu time spent up to now is       95.1 secs

     total energy              =    -111.52625585 Ry
     estimated scf accuracy    <          2.3E-09 Ry

     total magnetization       =     0.00 Bohr mag/cell
     absolute magnetization    =     3.59 Bohr mag/cell

     iteration #  5     ecut=    30.00 Ry     beta= 0.50
     Davidson diagonalization with overlap
     ethr =  1.42E-11,  avg # of iterations =  3.8

     Magnetic moment per site  (integrated on atomic sphere of radius R)
     atom   1 (R=0.357)  charge=  6.2103  magn= -1.7032
     atom   2 (R=0.357)  charge=  6.2103  magn=  1.7033

     total cpu time spent up to now is       97.5 secs

     End of self-consistent calculation

     Number of k-points >= 100: set verbosity='high' to print the bands.

     the Fermi energy is    14.0818 ev

!    total energy              =    -111.52625586 Ry
     estimated scf accuracy    <          7.6E-10 Ry
     smearing contrib. (-TS)   =      -0.00042119 Ry
     internal energy E=F+TS    =    -111.52583467 Ry

     The total energy is F=E-TS. E is the sum of the following terms:
     one-electron contribution =      15.75257091 Ry
     hartree contribution      =      12.81281543 Ry
     xc contribution           =     -52.76116462 Ry
     ewald contribution        =     -87.33005639 Ry

     total magnetization       =     0.00 Bohr mag/cell
     absolute magnetization    =     3.59 Bohr mag/cell

     convergence has been achieved in   5 iterations

     Forces acting on atoms (cartesian axes, Ry/au):

     atom    1 type  2   force =     0.00000000    0.00000000    0.00000000
     atom    2 type  1   force =     0.00000000    0.00000000    0.00000000

     Total force =     0.000000     Total SCF correction =     0.000000


     Computing stress (Cartesian axis) and pressure

          total   stress  (Ry/bohr**3)                   (kbar)     P=       -0.12
  -0.00000082   0.00000000   0.00000000           -0.12        0.00        0.00
   0.00000000  -0.00000082   0.00000000            0.00       -0.12        0.00
   0.00000000   0.00000000  -0.00000082            0.00        0.00       -0.12

     Energy error            =      3.7E-08 Ry
     Gradient error          =      0.0E+00 Ry/Bohr
     Cell gradient error     =      1.2E-01 kbar

     bfgs converged in   4 scf cycles and   3 bfgs steps
     (criteria: energy <  1.0E-04 Ry, force <  1.0E-03 Ry/Bohr, cell <  5.0E-01 kbar)

     End of BFGS Geometry Optimization

     Final enthalpy           =    -111.5262558594 Ry

     File /home/bond/Work/Lab4/1C/Fe_bcc_mag_anti/pwscf.bfgs deleted, as requested
Begin final coordinates
     new unit-cell volume =    151.76388 a.u.^3 (    22.48909 Ang^3 )
     density =      8.47494 g/cm^3

CELL_PARAMETERS (angstrom)
   2.822651608   0.000000000   0.000000000
   0.000000000   2.822651608   0.000000000
   0.000000000   0.000000000   2.822651608

ATOMIC_POSITIONS (angstrom)
Fe               0.0000000000        0.0000000000        0.0000000000
Co               1.4113258038        1.4113258038        1.4113258038
End final coordinates


     Message from routine punch:
     Nothing written, as per user request (disk_io='none')

     Final scf calculation at the relaxed structure.
     The G-vectors are recalculated for the final unit cell
     Results may differ from those at the preceding step.

     Parallelization info
     --------------------
     sticks:   dense  smooth     PW     G-vecs:    dense   smooth      PW
     Min         336     138     48                 6648     1702     368
     Max         337     139     49                 6653     1705     371
     Sum         673     277     97                13301     3407     739

     Using Slab Decomposition



     bravais-lattice index     =            0
     lattice parameter (alat)  =       5.1023  a.u.
     unit-cell volume          =     151.7639 (a.u.)^3
     number of atoms/cell      =            2
     number of atomic types    =            2
     number of electrons       =        16.00
     number of Kohn-Sham states=           12
     kinetic-energy cutoff     =      30.0000  Ry
     charge density cutoff     =     300.0000  Ry
     scf convergence threshold =      1.0E-09
     mixing beta               =       0.5000
     number of iterations used =            8  plain     mixing
     press convergence thresh. =      5.0E-01
     Exchange-correlation=  SLA  PW   PBE  PBE
                           (   1   4   3   4   0   0   0)

     celldm(1)=   5.102261  celldm(2)=   0.000000  celldm(3)=   0.000000
     celldm(4)=   0.000000  celldm(5)=   0.000000  celldm(6)=   0.000000

     crystal axes: (cart. coord. in units of alat)
               a(1) = (   1.045427   0.000000   0.000000 )  
               a(2) = (   0.000000   1.045427   0.000000 )  
               a(3) = (   0.000000   0.000000   1.045427 )  

     reciprocal axes: (cart. coord. in units 2 pi/alat)
               b(1) = (  0.956547  0.000000  0.000000 )  
               b(2) = (  0.000000  0.956547  0.000000 )  
               b(3) = (  0.000000  0.000000  0.956547 )  


     PseudoPot. # 1 for Fe read from file:
     /home/bond/Software/QE/qe-7.4.1/pseudo/Fe.pbe-nd-rrkjus.UPF
     MD5 check sum: 398036227a04b607635f6f5e8dfd8242
     Pseudo is Ultrasoft + core correction, Zval =  8.0
     Generated by new atomic code, or converted to UPF format
     Using radial grid of  957 points,  6 beta functions with: 
                l(1) =   0
                l(2) =   0
                l(3) =   1
                l(4) =   1
                l(5) =   2
                l(6) =   2
     Q(r) pseudized with 0 coefficients 


     PseudoPot. # 2 for Fe read from file:
     /home/bond/Software/QE/qe-7.4.1/pseudo/Fe.pbe-nd-rrkjus.UPF
     MD5 check sum: 398036227a04b607635f6f5e8dfd8242
     Pseudo is Ultrasoft + core correction, Zval =  8.0
     Generated by new atomic code, or converted to UPF format
     Using radial grid of  957 points,  6 beta functions with: 
                l(1) =   0
                l(2) =   0
                l(3) =   1
                l(4) =   1
                l(5) =   2
                l(6) =   2
     Q(r) pseudized with 0 coefficients 


     atomic species   valence    mass     pseudopotential
     Co                8.00    58.93319     Fe( 1.00)
     Fe                8.00    55.84500     Fe( 1.00)

     Starting magnetic structure 
     atomic species   magnetization
     Co              0.274
     Fe             -0.274

     48 Sym. Ops., with inversion, found



   Cartesian axes

     site n.     atom                  positions (alat units)
         1        Fe     tau(   1) = (   0.0000000   0.0000000   0.0000000  )
         2        Co     tau(   2) = (   0.5227133   0.5227133   0.5227133  )

     number of k points=   120  Methfessel-Paxton smearing, width (Ry)=  0.0200

     Number of k-points >= 100: set verbosity='high' to print them.

     Dense  grid:    13301 G-vectors     FFT dimensions: (  30,  30,  30)

     Smooth grid:     3407 G-vectors     FFT dimensions: (  20,  20,  20)

     Estimated max dynamical RAM per process >      41.99 MB

     Estimated total dynamical RAM >      83.99 MB

     Check: negative core charge=   -0.000005
     Generating pointlists ...

     Initial potential from superposition of free atoms

     starting charge      15.9987, renormalised to      16.0000
     Starting wfcs are   12 randomized atomic wfcs

     total cpu time spent up to now is       99.4 secs

     Self-consistent Calculation

     iteration #  1     ecut=    30.00 Ry     beta= 0.50
     Davidson diagonalization with overlap
     c_bands:  1 eigenvalues not converged
     c_bands:  1 eigenvalues not converged
     c_bands:  1 eigenvalues not converged
     c_bands:  1 eigenvalues not converged
     c_bands:  1 eigenvalues not converged
     c_bands:  1 eigenvalues not converged
     c_bands:  1 eigenvalues not converged
     c_bands:  1 eigenvalues not converged
     c_bands:  1 eigenvalues not converged
     c_bands:  1 eigenvalues not converged
     c_bands:  1 eigenvalues not converged
     c_bands:  1 eigenvalues not converged
     c_bands:  1 eigenvalues not converged
     c_bands:  1 eigenvalues not converged
     c_bands:  1 eigenvalues not converged
     c_bands:  1 eigenvalues not converged
     c_bands:  1 eigenvalues not converged
     c_bands:  1 eigenvalues not converged
     c_bands:  1 eigenvalues not converged
     c_bands:  2 eigenvalues not converged
     c_bands:  1 eigenvalues not converged
     c_bands:  1 eigenvalues not converged
     c_bands:  2 eigenvalues not converged
     c_bands:  1 eigenvalues not converged
     c_bands:  2 eigenvalues not converged
     c_bands:  2 eigenvalues not converged
     c_bands:  1 eigenvalues not converged
     c_bands:  1 eigenvalues not converged
     c_bands:  1 eigenvalues not converged
     c_bands:  1 eigenvalues not converged
     c_bands:  1 eigenvalues not converged
     c_bands:  1 eigenvalues not converged
     c_bands:  1 eigenvalues not converged
     c_bands:  1 eigenvalues not converged
     c_bands:  1 eigenvalues not converged
     c_bands:  1 eigenvalues not converged
     c_bands:  1 eigenvalues not converged
     c_bands:  1 eigenvalues not converged
     c_bands:  1 eigenvalues not converged
     c_bands:  1 eigenvalues not converged
     c_bands:  1 eigenvalues not converged
     c_bands:  1 eigenvalues not converged
     c_bands:  1 eigenvalues not converged
     c_bands:  1 eigenvalues not converged
     c_bands:  2 eigenvalues not converged
     c_bands:  1 eigenvalues not converged
     c_bands:  1 eigenvalues not converged
     c_bands:  2 eigenvalues not converged
     c_bands:  1 eigenvalues not converged
     c_bands:  2 eigenvalues not converged
     c_bands:  2 eigenvalues not converged
     ethr =  1.00E-06,  avg # of iterations = 16.3

     total cpu time spent up to now is      106.4 secs

     total energy              =    -111.26757559 Ry
     estimated scf accuracy    <       0.76620152 Ry

     total magnetization       =     0.00 Bohr mag/cell
     absolute magnetization    =     3.19 Bohr mag/cell

     iteration #  2     ecut=    30.00 Ry     beta= 0.50
     Davidson diagonalization with overlap
     ethr =  4.79E-03,  avg # of iterations =  2.2

     total cpu time spent up to now is      108.0 secs

     total energy              =    -111.50853778 Ry
     estimated scf accuracy    <       0.12660535 Ry

     total magnetization       =    -0.00 Bohr mag/cell
     absolute magnetization    =     3.55 Bohr mag/cell

     iteration #  3     ecut=    30.00 Ry     beta= 0.50
     Davidson diagonalization with overlap
     ethr =  7.91E-04,  avg # of iterations =  1.4

     total cpu time spent up to now is      109.3 secs

     total energy              =    -111.52334206 Ry
     estimated scf accuracy    <       0.00490864 Ry

     total magnetization       =    -0.00 Bohr mag/cell
     absolute magnetization    =     3.49 Bohr mag/cell

     iteration #  4     ecut=    30.00 Ry     beta= 0.50
     Davidson diagonalization with overlap
     ethr =  3.07E-05,  avg # of iterations =  3.5

     total cpu time spent up to now is      111.2 secs

     total energy              =    -111.52415396 Ry
     estimated scf accuracy    <       0.01109031 Ry

     total magnetization       =     0.00 Bohr mag/cell
     absolute magnetization    =     3.52 Bohr mag/cell

     iteration #  5     ecut=    30.00 Ry     beta= 0.50
     Davidson diagonalization with overlap
     ethr =  3.07E-05,  avg # of iterations =  2.5

     total cpu time spent up to now is      112.8 secs

     total energy              =    -111.52716958 Ry
     estimated scf accuracy    <       0.00094469 Ry

     total magnetization       =    -0.03 Bohr mag/cell
     absolute magnetization    =     3.57 Bohr mag/cell

     iteration #  6     ecut=    30.00 Ry     beta= 0.50
     Davidson diagonalization with overlap
     ethr =  5.90E-06,  avg # of iterations =  1.8

     total cpu time spent up to now is      114.2 secs

     total energy              =    -111.52736779 Ry
     estimated scf accuracy    <       0.00100523 Ry

     total magnetization       =     0.02 Bohr mag/cell
     absolute magnetization    =     3.57 Bohr mag/cell

     iteration #  7     ecut=    30.00 Ry     beta= 0.50
     Davidson diagonalization with overlap
     ethr =  5.90E-06,  avg # of iterations =  1.0

     total cpu time spent up to now is      115.5 secs

     total energy              =    -111.52698717 Ry
     estimated scf accuracy    <       0.00104610 Ry

     total magnetization       =     0.00 Bohr mag/cell
     absolute magnetization    =     3.59 Bohr mag/cell

     iteration #  8     ecut=    30.00 Ry     beta= 0.50
     Davidson diagonalization with overlap
     ethr =  5.90E-06,  avg # of iterations =  2.0

     total cpu time spent up to now is      116.9 secs

     total energy              =    -111.52717973 Ry
     estimated scf accuracy    <       0.00000398 Ry

     total magnetization       =     0.00 Bohr mag/cell
     absolute magnetization    =     3.59 Bohr mag/cell

     iteration #  9     ecut=    30.00 Ry     beta= 0.50
     Davidson diagonalization with overlap
     ethr =  2.49E-08,  avg # of iterations =  7.7

     total cpu time spent up to now is      120.0 secs

     total energy              =    -111.52719695 Ry
     estimated scf accuracy    <       0.00000323 Ry

     total magnetization       =     0.00 Bohr mag/cell
     absolute magnetization    =     3.59 Bohr mag/cell

     iteration # 10     ecut=    30.00 Ry     beta= 0.50
     Davidson diagonalization with overlap
     ethr =  2.02E-08,  avg # of iterations =  2.0

     total cpu time spent up to now is      121.4 secs

     total energy              =    -111.52719788 Ry
     estimated scf accuracy    <       0.00000003 Ry

     total magnetization       =     0.00 Bohr mag/cell
     absolute magnetization    =     3.59 Bohr mag/cell

     iteration # 11     ecut=    30.00 Ry     beta= 0.50
     Davidson diagonalization with overlap
     ethr =  1.65E-10,  avg # of iterations =  8.2

     total cpu time spent up to now is      124.6 secs

     total energy              =    -111.52719805 Ry
     estimated scf accuracy    <          3.0E-09 Ry

     total magnetization       =     0.00 Bohr mag/cell
     absolute magnetization    =     3.59 Bohr mag/cell

     iteration # 12     ecut=    30.00 Ry     beta= 0.50
     Davidson diagonalization with overlap
     ethr =  1.85E-11,  avg # of iterations =  4.3

     total cpu time spent up to now is      126.6 secs

     total energy              =    -111.52719806 Ry
     estimated scf accuracy    <          3.4E-09 Ry

     total magnetization       =     0.00 Bohr mag/cell
     absolute magnetization    =     3.59 Bohr mag/cell

     iteration # 13     ecut=    30.00 Ry     beta= 0.50
     Davidson diagonalization with overlap
     ethr =  1.85E-11,  avg # of iterations =  1.0

     total cpu time spent up to now is      127.8 secs

     total energy              =    -111.52719807 Ry
     estimated scf accuracy    <          4.0E-09 Ry

     total magnetization       =     0.00 Bohr mag/cell
     absolute magnetization    =     3.59 Bohr mag/cell

     iteration # 14     ecut=    30.00 Ry     beta= 0.50
     Davidson diagonalization with overlap
     ethr =  1.85E-11,  avg # of iterations =  2.6

     total cpu time spent up to now is      129.4 secs

     total energy              =    -111.52719807 Ry
     estimated scf accuracy    <       0.00000002 Ry

     total magnetization       =     0.00 Bohr mag/cell
     absolute magnetization    =     3.59 Bohr mag/cell

     iteration # 15     ecut=    30.00 Ry     beta= 0.50
     Davidson diagonalization with overlap
     ethr =  1.85E-11,  avg # of iterations =  1.1

     total cpu time spent up to now is      130.7 secs

     total energy              =    -111.52719807 Ry
     estimated scf accuracy    <       0.00000001 Ry

     total magnetization       =     0.00 Bohr mag/cell
     absolute magnetization    =     3.59 Bohr mag/cell

     iteration # 16     ecut=    30.00 Ry     beta= 0.50
     Davidson diagonalization with overlap
     ethr =  1.85E-11,  avg # of iterations =  1.3

     total cpu time spent up to now is      132.0 secs

     total energy              =    -111.52719806 Ry
     estimated scf accuracy    <          5.2E-09 Ry

     total magnetization       =     0.00 Bohr mag/cell
     absolute magnetization    =     3.59 Bohr mag/cell

     iteration # 17     ecut=    30.00 Ry     beta= 0.50
     Davidson diagonalization with overlap
     ethr =  1.85E-11,  avg # of iterations =  2.6

     Magnetic moment per site  (integrated on atomic sphere of radius R)
     atom   1 (R=0.357)  charge=  6.2108  magn= -1.7032
     atom   2 (R=0.357)  charge=  6.2108  magn=  1.7031

     total cpu time spent up to now is      133.5 secs

     End of self-consistent calculation

     Number of k-points >= 100: set verbosity='high' to print the bands.

     the Fermi energy is    14.0798 ev

!    total energy              =    -111.52719807 Ry
     estimated scf accuracy    <          3.5E-11 Ry
     smearing contrib. (-TS)   =      -0.00042129 Ry
     internal energy E=F+TS    =    -111.52677678 Ry

     The total energy is F=E-TS. E is the sum of the following terms:
     one-electron contribution =      15.75127500 Ry
     hartree contribution      =      12.81182483 Ry
     xc contribution           =     -52.75982022 Ry
     ewald contribution        =     -87.33005639 Ry

     total magnetization       =    -0.00 Bohr mag/cell
     absolute magnetization    =     3.59 Bohr mag/cell

     convergence has been achieved in  17 iterations

     Forces acting on atoms (cartesian axes, Ry/au):

     atom    1 type  2   force =     0.00000000    0.00000000    0.00000000
     atom    2 type  1   force =     0.00000000    0.00000000    0.00000000

     Total force =     0.000000     Total SCF correction =     0.000000


     Computing stress (Cartesian axis) and pressure

          total   stress  (Ry/bohr**3)                   (kbar)     P=        0.59
   0.00000403   0.00000000   0.00000000            0.59        0.00        0.00
   0.00000000   0.00000403   0.00000000            0.00        0.59        0.00
   0.00000000   0.00000000   0.00000403            0.00        0.00        0.59

     Message from routine punch:
     Nothing written, as per user request (disk_io='none')

     init_run     :      2.57s CPU      2.78s WALL (       2 calls)
     electrons    :    118.24s CPU    125.61s WALL (       5 calls)
     update_pot   :      0.07s CPU      0.07s WALL (       3 calls)
     forces       :      0.94s CPU      0.95s WALL (       5 calls)
     stress       :      4.87s CPU      4.91s WALL (       5 calls)

     Called by init_run:
     wfcinit      :      1.10s CPU      1.26s WALL (       2 calls)
     potinit      :      0.34s CPU      0.35s WALL (       2 calls)
     hinit0       :      0.96s CPU      0.98s WALL (       2 calls)

     Called by electrons:
     c_bands      :     96.47s CPU    102.80s WALL (      62 calls)
     sum_band     :     17.69s CPU     18.66s WALL (      62 calls)
     v_of_rho     :      1.23s CPU      1.25s WALL (      65 calls)
     newd         :      2.99s CPU      3.03s WALL (      65 calls)
     mix_rho      :      0.11s CPU      0.11s WALL (      62 calls)

     Called by c_bands:
     init_us_2    :      3.19s CPU      3.43s WALL (   32640 calls)
     cegterg      :     89.11s CPU     94.93s WALL (   14880 calls)

     Called by *egterg:
     cdiaghg      :     11.87s CPU     12.69s WALL (   59903 calls)
     h_psi        :     65.88s CPU     70.24s WALL (   61583 calls)
     s_psi        :      1.63s CPU      1.76s WALL (   61583 calls)
     g_psi        :      0.41s CPU      0.44s WALL (   46223 calls)

     Called by h_psi:
     h_psi:calbec :      3.83s CPU      4.10s WALL (   61583 calls)
     vloc_psi     :     59.33s CPU     63.24s WALL (   61583 calls)
     add_vuspsi   :      1.88s CPU      2.01s WALL (   61583 calls)

     General routines
     calbec       :      5.52s CPU      5.89s WALL (   96863 calls)
     fft          :      0.66s CPU      0.68s WALL (    1822 calls)
     ffts         :      0.26s CPU      0.26s WALL (     254 calls)
     fftw         :     56.93s CPU     60.81s WALL ( 1230052 calls)
     interpolate  :      0.28s CPU      0.29s WALL (     130 calls)

     Parallel routines

     PWSCF        :   2m 7.13s CPU   2m14.79s WALL


   This run was terminated on:   1:26:32  21Oct2025            

=------------------------------------------------------------------------------=
   JOB DONE.
=------------------------------------------------------------------------------=
