LAMMPS (22 Jul 2025 - Update 1)
# ---------- 1. Initialize simulation ---------------------
units metal
atom_style atomic
dimension  3
boundary   p p f
read_data /home/bond/Work/Lab1/Surface/LJ/relax/9_6_111/lammps.data
Reading data file ...
  orthogonal box = (0 0 0) to (8.7451919 7.5735584 31.041118)
  1 by 1 by 1 MPI processor grid
  reading atoms ...
  81 atoms
  read_data CPU = 0.001 seconds

# ---------- 2. Specify interatomic potential ---------------------
pair_style lj/cut 4.5
pair_coeff 1 1 0.392 2.620 4.5

# ---------- 3. Run single point calculation  ---------------------
thermo_style custom step pe lx ly lz press pxx pyy pzz
run 0
WARNING: No fixes with time integration, atoms won't move
For more information see https://docs.lammps.org/err0028 (../verlet.cpp:60)
Generated 0 of 0 mixed pair_coeff terms from geometric mixing rule
Neighbor list info ...
  update: every = 1 steps, delay = 0 steps, check = yes
  max neighbors/atom: 2000, page size: 100000
  master list distance cutoff = 6.5
  ghost atom cutoff = 6.5
  binsize = 3.25, bins = 3 3 10
  1 neighbor lists, perpetual/occasional/extra = 1 0 0
  (1) pair lj/cut, perpetual
      attributes: half, newton on
      pair build: half/bin/atomonly/newton
      stencil: half/bin/3d
      bin: standard
Per MPI rank memory allocation (min/avg/max) = 3.065 | 3.065 | 3.065 Mbytes
   Step         PotEng           Lx             Ly             Lz           Press           Pxx            Pyy            Pzz      
         0  -166.41176      8.7451919      7.5735584      31.041118      139616.83     -26206.714      355570.37      89486.835    
Loop time of 1.387e-06 on 1 procs for 0 steps with 81 atoms

144.2% CPU use with 1 MPI tasks x no OpenMP threads

MPI task timing breakdown:
Section |  min time  |  avg time  |  max time  |%varavg| %total
---------------------------------------------------------------
Pair    | 0          | 0          | 0          |   0.0 |  0.00
Neigh   | 0          | 0          | 0          |   0.0 |  0.00
Comm    | 0          | 0          | 0          |   0.0 |  0.00
Output  | 0          | 0          | 0          |   0.0 |  0.00
Modify  | 0          | 0          | 0          |   0.0 |  0.00
Other   |            | 1.387e-06  |            |       |100.00

Nlocal:             81 ave          81 max          81 min
Histogram: 1 0 0 0 0 0 0 0 0 0
Nghost:            462 ave         462 max         462 min
Histogram: 1 0 0 0 0 0 0 0 0 0
Neighs:           2151 ave        2151 max        2151 min
Histogram: 1 0 0 0 0 0 0 0 0 0

Total # of neighbors = 2151
Ave neighs/atom = 26.555556
Neighbor list builds = 0
Dangerous builds = 0
# -- include optimization of the unit cell parameter
fix 1 all box/relax x 0.0 y 0.0 couple xy vmax 0.001

# -- enable optimization of atomic positions (and the cell)
min_style cg
minimize 1e-10 1e-10 1000 10000
Generated 0 of 0 mixed pair_coeff terms from geometric mixing rule
WARNING: Energy due to 3 extra global DOFs will be included in minimizer energies
 (../min.cpp:222)
Per MPI rank memory allocation (min/avg/max) = 4.19 | 4.19 | 4.19 Mbytes
   Step         PotEng           Lx             Ly             Lz           Press           Pxx            Pyy            Pzz      
         0  -166.41176      8.7451919      7.5735584      31.041118      139616.83     -26206.714      355570.37      89486.835    
        55  -175.57232      9.0850693      7.8679008      31.041118      13930.895     -97399.721      99624.757      39567.648    
Loop time of 0.0108681 on 1 procs for 55 steps with 81 atoms

99.3% CPU use with 1 MPI tasks x no OpenMP threads

Minimization stats:
  Stopping criterion = linesearch alpha is zero
  Energy initial, next-to-last, final = 
     -166.411762946584  -175.572315456435  -175.572315456435
  Force two-norm initial, final = 304.72073 38.185096
  Force max component initial, final = 211.32068 5.7006399
  Final line search alpha, max atom move = 5.0237474e-12 2.8638575e-11
  Iterations, force evaluations = 55 288

MPI task timing breakdown:
Section |  min time  |  avg time  |  max time  |%varavg| %total
---------------------------------------------------------------
Pair    | 0.0073726  | 0.0073726  | 0.0073726  |   0.0 | 67.84
Neigh   | 0          | 0          | 0          |   0.0 |  0.00
Comm    | 0.00058858 | 0.00058858 | 0.00058858 |   0.0 |  5.42
Output  | 0          | 0          | 0          |   0.0 |  0.00
Modify  | 0          | 0          | 0          |   0.0 |  0.00
Other   |            | 0.002907   |            |       | 26.75

Nlocal:             81 ave          81 max          81 min
Histogram: 1 0 0 0 0 0 0 0 0 0
Nghost:            462 ave         462 max         462 min
Histogram: 1 0 0 0 0 0 0 0 0 0
Neighs:           2151 ave        2151 max        2151 min
Histogram: 1 0 0 0 0 0 0 0 0 0

Total # of neighbors = 2151
Ave neighs/atom = 26.555556
Neighbor list builds = 0
Dangerous builds = 0

# ---- 4. Define and print useful variables -------------
variable natoms equal "count(all)"
variable totenergy equal "pe"
variable length equal "lx"

print "Total energy (eV) = ${totenergy}"
Total energy (eV) = -175.572315456435
print "Number of atoms = ${natoms}"
Number of atoms = 81
print "Lattice constant (Angstoms) = ${length}"
Lattice constant (Angstoms) = 9.08506925936319
Total wall time: 0:00:00
