LAMMPS (22 Jul 2025 - Update 1)
Reading data file ...
  orthogonal box = (0 0 0) to (12.367569 12.367569 12.367569)
  1 by 1 by 1 MPI processor grid
  reading atoms ...
  107 atoms
  read_data CPU = 0.001 seconds
WARNING: No fixes with time integration, atoms won't move
For more information see https://docs.lammps.org/err0028 (../verlet.cpp:60)
Generated 0 of 0 mixed pair_coeff terms from geometric mixing rule
Neighbor list info ...
  update: every = 1 steps, delay = 0 steps, check = yes
  max neighbors/atom: 2000, page size: 100000
  master list distance cutoff = 6.5
  ghost atom cutoff = 6.5
  binsize = 3.25, bins = 4 4 4
  1 neighbor lists, perpetual/occasional/extra = 1 0 0
  (1) pair lj/cut, perpetual
      attributes: half, newton on
      pair build: half/bin/atomonly/newton
      stencil: half/bin/3d
      bin: standard
Setting up Verlet run ...
  Unit style    : metal
  Current step  : 0
  Time step     : 0.001
Per MPI rank memory allocation (min/avg/max) = 3.098 | 3.098 | 3.098 Mbytes
   Step         PotEng           Lx             Ly             Lz           Press           Pxx            Pyy            Pzz      
         0  -279.26809      12.367569      12.367569      12.367569     -0.086335474   -0.084275985   -0.09045445    -0.084275985  
Loop time of 1.985e-06 on 1 procs for 0 steps with 107 atoms

100.8% CPU use with 1 MPI tasks x no OpenMP threads

MPI task timing breakdown:
Section |  min time  |  avg time  |  max time  |%varavg| %total
---------------------------------------------------------------
Pair    | 0          | 0          | 0          |   0.0 |  0.00
Neigh   | 0          | 0          | 0          |   0.0 |  0.00
Comm    | 0          | 0          | 0          |   0.0 |  0.00
Output  | 0          | 0          | 0          |   0.0 |  0.00
Modify  | 0          | 0          | 0          |   0.0 |  0.00
Other   |            | 1.985e-06  |            |       |100.00

Nlocal:            107 ave         107 max         107 min
Histogram: 1 0 0 0 0 0 0 0 0 0
Nghost:            983 ave         983 max         983 min
Histogram: 1 0 0 0 0 0 0 0 0 0
Neighs:           2862 ave        2862 max        2862 min
Histogram: 1 0 0 0 0 0 0 0 0 0

Total # of neighbors = 2862
Ave neighs/atom = 26.747664
Neighbor list builds = 0
Dangerous builds = 0
Generated 0 of 0 mixed pair_coeff terms from geometric mixing rule
Setting up cg style minimization ...
  Unit style    : metal
  Current step  : 0
WARNING: Energy due to 1 extra global DOFs will be included in minimizer energies
 (../min.cpp:222)
Per MPI rank memory allocation (min/avg/max) = 4.223 | 4.223 | 4.223 Mbytes
   Step         PotEng           Lx             Ly             Lz           Press           Pxx            Pyy            Pzz      
         0  -279.26809      12.367569      12.367569      12.367569     -0.086335474   -0.084275985   -0.09045445    -0.084275985  
        25  -279.27604      12.367002      12.367002      12.367002      0.43255931     0.43260291     0.43247211     0.43260291   
Loop time of 0.00314824 on 1 procs for 25 steps with 107 atoms

100.0% CPU use with 1 MPI tasks x no OpenMP threads

Minimization stats:
  Stopping criterion = energy tolerance
  Energy initial, next-to-last, final = 
     -279.268092880694  -279.276042513645  -279.276042513725
  Force two-norm initial, final = 0.45235416 0.0016423724
  Force max component initial, final = 0.13063076 0.0015320387
  Final line search alpha, max atom move = 1 0.0015320387
  Iterations, force evaluations = 25 50

MPI task timing breakdown:
Section |  min time  |  avg time  |  max time  |%varavg| %total
---------------------------------------------------------------
Pair    | 0.0019287  | 0.0019287  | 0.0019287  |   0.0 | 61.26
Neigh   | 0          | 0          | 0          |   0.0 |  0.00
Comm    | 0.00022517 | 0.00022517 | 0.00022517 |   0.0 |  7.15
Output  | 0          | 0          | 0          |   0.0 |  0.00
Modify  | 0          | 0          | 0          |   0.0 |  0.00
Other   |            | 0.0009944  |            |       | 31.59

Nlocal:            107 ave         107 max         107 min
Histogram: 1 0 0 0 0 0 0 0 0 0
Nghost:            983 ave         983 max         983 min
Histogram: 1 0 0 0 0 0 0 0 0 0
Neighs:           2862 ave        2862 max        2862 min
Histogram: 1 0 0 0 0 0 0 0 0 0

Total # of neighbors = 2862
Ave neighs/atom = 26.747664
Neighbor list builds = 0
Dangerous builds = 0
Total energy (eV) = -279.276042513725
Number of atoms = 107
Lattice constant (Angstoms) = 12.367001598779
Total wall time: 0:00:00
