
     Program PWSCF v.7.4.1 starts on 20Oct2025 at 23:18:49 

     This program is part of the open-source Quantum ESPRESSO suite
     for quantum simulation of materials; please cite
         "P. Giannozzi et al., J. Phys.:Condens. Matter 21 395502 (2009);
         "P. Giannozzi et al., J. Phys.:Condens. Matter 29 465901 (2017);
         "P. Giannozzi et al., J. Chem. Phys. 152 154105 (2020);
          URL http://www.quantum-espresso.org", 
     in publications or presentations arising from this work. More details at
     http://www.quantum-espresso.org/quote

     Parallel version (MPI), running on     2 processors

     MPI processes distributed on     1 nodes
     340 MiB available memory on the printing compute node when the environment starts

     Waiting for input...
     Reading input from standard input
Warning: card &CELL ignored
Warning: card / ignored

     Current dimensions of program PWSCF are:
     Max number of different atomic species (ntypx) = 10
     Max number of k-points (npk) =  40000
     Max angular momentum in pseudopotentials (lmaxx) =  4
     file Fe.pbe-nd-rrkjus.UPF: wavefunction(s)  4S renormalized
     Message from routine setup:
     using ibrav=0 with symmetry is DISCOURAGED, use correct ibrav instead

     R & G space division:  proc/nbgrp/npool/nimage =       2
     Subspace diagonalization in iterative solution of the eigenvalue problem:
     a serial algorithm will be used


     Parallelization info
     --------------------
     sticks:   dense  smooth     PW     G-vecs:    dense   smooth      PW
     Min         270     108     49                 4002      992     313
     Max         271     109     50                 4005      993     314
     Sum         541     217     99                 8007     1985     627

     Using Slab Decomposition



     bravais-lattice index     =            0
     lattice parameter (alat)  =       4.9097  a.u.
     unit-cell volume          =      91.1025 (a.u.)^3
     number of atoms/cell      =            1
     number of atomic types    =            1
     number of electrons       =         8.00
     number of Kohn-Sham states=            8
     kinetic-energy cutoff     =      30.0000  Ry
     charge density cutoff     =     300.0000  Ry
     scf convergence threshold =      1.0E-07
     mixing beta               =       0.5000
     number of iterations used =            8  plain     mixing
     Exchange-correlation=  SLA  PW   PBE  PBE
                           (   1   4   3   4   0   0   0)

     celldm(1)=   4.909652  celldm(2)=   0.000000  celldm(3)=   0.000000
     celldm(4)=   0.000000  celldm(5)=   0.000000  celldm(6)=   0.000000

     crystal axes: (cart. coord. in units of alat)
               a(1) = (  -0.577350   0.577350   0.577350 )  
               a(2) = (   0.577350  -0.577350   0.577350 )  
               a(3) = (   0.577350   0.577350  -0.577350 )  

     reciprocal axes: (cart. coord. in units 2 pi/alat)
               b(1) = (  0.000000  0.866025  0.866025 )  
               b(2) = (  0.866025  0.000000  0.866025 )  
               b(3) = (  0.866025  0.866025  0.000000 )  


     PseudoPot. # 1 for Fe read from file:
     /home/bond/Software/QE/qe-7.4.1/pseudo/Fe.pbe-nd-rrkjus.UPF
     MD5 check sum: 398036227a04b607635f6f5e8dfd8242
     Pseudo is Ultrasoft + core correction, Zval =  8.0
     Generated by new atomic code, or converted to UPF format
     Using radial grid of  957 points,  6 beta functions with: 
                l(1) =   0
                l(2) =   0
                l(3) =   1
                l(4) =   1
                l(5) =   2
                l(6) =   2
     Q(r) pseudized with 0 coefficients 


     atomic species   valence    mass     pseudopotential
     Fe                8.00    55.84500     Fe( 1.00)

     Starting magnetic structure 
     atomic species   magnetization
     Fe              0.700

     48 Sym. Ops., with inversion, found



   Cartesian axes

     site n.     atom                  positions (alat units)
         1        Fe     tau(   1) = (   0.0000000   0.0000000   0.0000000  )

     number of k points=   104  Methfessel-Paxton smearing, width (Ry)=  0.0200

     Number of k-points >= 100: set verbosity='high' to print them.

     Dense  grid:     8007 G-vectors     FFT dimensions: (  27,  27,  27)

     Smooth grid:     1985 G-vectors     FFT dimensions: (  18,  18,  18)

     Estimated max dynamical RAM per process >      20.97 MB

     Estimated total dynamical RAM >      41.94 MB

     Check: negative core charge=   -0.000010
     Generating pointlists ...
     new r_m :   0.4125 (alat units)  2.0252 (a.u.) for type    1

     Initial potential from superposition of free atoms

     starting charge       7.9994, renormalised to       8.0000
     Starting wfcs are    6 randomized atomic wfcs +    2 random wfcs

     total cpu time spent up to now is        1.0 secs

     Self-consistent Calculation

     iteration #  1     ecut=    30.00 Ry     beta= 0.50
     Davidson diagonalization with overlap
     ethr =  1.00E-02,  avg # of iterations =  4.5

     total cpu time spent up to now is        2.4 secs

     total energy              =     -55.64646261 Ry
     estimated scf accuracy    <       0.35647536 Ry

     total magnetization       =     3.33 Bohr mag/cell
     absolute magnetization    =     3.33 Bohr mag/cell

     iteration #  2     ecut=    30.00 Ry     beta= 0.50
     Davidson diagonalization with overlap
     ethr =  4.46E-03,  avg # of iterations =  1.9

     total cpu time spent up to now is        3.3 secs

     total energy              =     -55.75942361 Ry
     estimated scf accuracy    <       0.09194122 Ry

     total magnetization       =     2.91 Bohr mag/cell
     absolute magnetization    =     2.93 Bohr mag/cell

     iteration #  3     ecut=    30.00 Ry     beta= 0.50
     Davidson diagonalization with overlap
     ethr =  1.15E-03,  avg # of iterations =  1.1

     total cpu time spent up to now is        4.1 secs

     total energy              =     -55.79072645 Ry
     estimated scf accuracy    <       0.00682252 Ry

     total magnetization       =     2.90 Bohr mag/cell
     absolute magnetization    =     2.96 Bohr mag/cell

     iteration #  4     ecut=    30.00 Ry     beta= 0.50
     Davidson diagonalization with overlap
     ethr =  8.53E-05,  avg # of iterations =  2.6

     total cpu time spent up to now is        5.1 secs

     total energy              =     -55.79468599 Ry
     estimated scf accuracy    <       0.00023243 Ry

     total magnetization       =     2.70 Bohr mag/cell
     absolute magnetization    =     2.88 Bohr mag/cell

     iteration #  5     ecut=    30.00 Ry     beta= 0.50
     Davidson diagonalization with overlap
     c_bands:  1 eigenvalues not converged
     c_bands:  1 eigenvalues not converged
     ethr =  2.91E-06,  avg # of iterations =  6.8

     total cpu time spent up to now is        6.6 secs

     total energy              =     -55.79487636 Ry
     estimated scf accuracy    <       0.00005300 Ry

     total magnetization       =     2.67 Bohr mag/cell
     absolute magnetization    =     2.88 Bohr mag/cell

     iteration #  6     ecut=    30.00 Ry     beta= 0.50
     Davidson diagonalization with overlap
     ethr =  6.63E-07,  avg # of iterations =  2.5

     total cpu time spent up to now is        7.6 secs

     total energy              =     -55.79491837 Ry
     estimated scf accuracy    <       0.00001356 Ry

     total magnetization       =     2.66 Bohr mag/cell
     absolute magnetization    =     2.88 Bohr mag/cell

     iteration #  7     ecut=    30.00 Ry     beta= 0.50
     Davidson diagonalization with overlap
     ethr =  1.70E-07,  avg # of iterations =  2.3

     total cpu time spent up to now is        8.5 secs

     total energy              =     -55.79492393 Ry
     estimated scf accuracy    <       0.00000096 Ry

     total magnetization       =     2.67 Bohr mag/cell
     absolute magnetization    =     2.88 Bohr mag/cell

     iteration #  8     ecut=    30.00 Ry     beta= 0.50
     Davidson diagonalization with overlap
     ethr =  1.19E-08,  avg # of iterations =  4.8

     total cpu time spent up to now is        9.7 secs

     total energy              =     -55.79492507 Ry
     estimated scf accuracy    <       0.00000299 Ry

     total magnetization       =     2.67 Bohr mag/cell
     absolute magnetization    =     2.88 Bohr mag/cell

     iteration #  9     ecut=    30.00 Ry     beta= 0.50
     Davidson diagonalization with overlap
     ethr =  1.19E-08,  avg # of iterations =  2.0

     Magnetic moment per site  (integrated on atomic sphere of radius R)
     atom   1 (R=0.413)  charge=  6.5654  magn=  2.7676

     total cpu time spent up to now is       10.6 secs

     End of self-consistent calculation

     Number of k-points >= 100: set verbosity='high' to print the bands.

     the Fermi energy is    10.9437 ev

!    total energy              =     -55.79492572 Ry
     estimated scf accuracy    <          1.8E-09 Ry
     smearing contrib. (-TS)   =      -0.00004241 Ry
     internal energy E=F+TS    =     -55.79488331 Ry

     The total energy is F=E-TS. E is the sum of the following terms:
     one-electron contribution =       4.23284066 Ry
     hartree contribution      =       7.45335563 Ry
     xc contribution           =     -26.39735892 Ry
     ewald contribution        =     -41.08372067 Ry

     total magnetization       =     2.67 Bohr mag/cell
     absolute magnetization    =     2.88 Bohr mag/cell

     convergence has been achieved in   9 iterations

     Forces acting on atoms (cartesian axes, Ry/au):

     atom    1 type  1   force =     0.00000000    0.00000000    0.00000000

     Total force =     0.000000     Total SCF correction =     0.000000


     Computing stress (Cartesian axis) and pressure

          total   stress  (Ry/bohr**3)                   (kbar)     P=     -164.77
  -0.00112010   0.00000000   0.00000000         -164.77        0.00        0.00
   0.00000000  -0.00112010   0.00000000            0.00     -164.77        0.00
   0.00000000   0.00000000  -0.00112010            0.00        0.00     -164.77

     Message from routine punch:
     Nothing written, as per user request (disk_io='none')

     init_run     :      0.75s CPU      0.79s WALL (       1 calls)
     electrons    :      9.04s CPU      9.66s WALL (       1 calls)
     forces       :      0.07s CPU      0.07s WALL (       1 calls)
     stress       :      0.38s CPU      0.38s WALL (       1 calls)

     Called by init_run:
     wfcinit      :      0.33s CPU      0.34s WALL (       1 calls)
     potinit      :      0.15s CPU      0.16s WALL (       1 calls)
     hinit0       :      0.24s CPU      0.24s WALL (       1 calls)

     Called by electrons:
     c_bands      :      7.41s CPU      7.93s WALL (       9 calls)
     sum_band     :      1.34s CPU      1.42s WALL (       9 calls)
     v_of_rho     :      0.15s CPU      0.16s WALL (      10 calls)
     newd         :      0.17s CPU      0.18s WALL (      10 calls)
     mix_rho      :      0.01s CPU      0.01s WALL (       9 calls)

     Called by c_bands:
     init_us_2    :      0.21s CPU      0.23s WALL (    4368 calls)
     cegterg      :      6.99s CPU      7.48s WALL (    1872 calls)

     Called by *egterg:
     cdiaghg      :      0.75s CPU      0.81s WALL (    7785 calls)
     h_psi        :      5.70s CPU      6.10s WALL (    7993 calls)
     s_psi        :      0.07s CPU      0.08s WALL (    7993 calls)
     g_psi        :      0.03s CPU      0.03s WALL (    5913 calls)

     Called by h_psi:
     h_psi:calbec :      0.25s CPU      0.27s WALL (    7993 calls)
     vloc_psi     :      5.28s CPU      5.65s WALL (    7993 calls)
     add_vuspsi   :      0.09s CPU      0.09s WALL (    7993 calls)

     General routines
     calbec       :      0.36s CPU      0.38s WALL (   13401 calls)
     fft          :      0.13s CPU      0.14s WALL (     288 calls)
     ffts         :      0.11s CPU      0.12s WALL (      38 calls)
     fftw         :      5.37s CPU      5.74s WALL (   98672 calls)
     interpolate  :      0.12s CPU      0.12s WALL (      20 calls)

     Parallel routines

     PWSCF        :     10.39s CPU     11.08s WALL


   This run was terminated on:  23:19: 0  20Oct2025            

=------------------------------------------------------------------------------=
   JOB DONE.
=------------------------------------------------------------------------------=
