
     Program PWSCF v.7.4.1 starts on 21Oct2025 at 12:40:42 

     This program is part of the open-source Quantum ESPRESSO suite
     for quantum simulation of materials; please cite
         "P. Giannozzi et al., J. Phys.:Condens. Matter 21 395502 (2009);
         "P. Giannozzi et al., J. Phys.:Condens. Matter 29 465901 (2017);
         "P. Giannozzi et al., J. Chem. Phys. 152 154105 (2020);
          URL http://www.quantum-espresso.org", 
     in publications or presentations arising from this work. More details at
     http://www.quantum-espresso.org/quote

     Parallel version (MPI), running on     2 processors

     MPI processes distributed on     1 nodes
     841 MiB available memory on the printing compute node when the environment starts

     Waiting for input...
     Reading input from standard input
Warning: card &CELL ignored
Warning: card / ignored

     Current dimensions of program PWSCF are:
     Max number of different atomic species (ntypx) = 10
     Max number of k-points (npk) =  40000
     Max angular momentum in pseudopotentials (lmaxx) =  4
     file O.pz-rrkjus.UPF: wavefunction(s)  2S renormalized
     Message from routine setup:
     using ibrav=0 with symmetry is DISCOURAGED, use correct ibrav instead

     R & G space division:  proc/nbgrp/npool/nimage =       2
     Subspace diagonalization in iterative solution of the eigenvalue problem:
     a serial algorithm will be used


     Parallelization info
     --------------------
     sticks:   dense  smooth     PW     G-vecs:    dense   smooth      PW
     Min         516     254     74                12286     4354     709
     Max         517     255     75                12287     4355     710
     Sum        1033     509    149                24573     8709    1419

     Using Slab Decomposition



     bravais-lattice index     =            0
     lattice parameter (alat)  =       7.3227  a.u.
     unit-cell volume          =     392.6555 (a.u.)^3
     number of atoms/cell      =            5
     number of atomic types    =            3
     number of electrons       =        44.00
     number of Kohn-Sham states=           22
     kinetic-energy cutoff     =      30.0000  Ry
     charge density cutoff     =     240.0000  Ry
     scf convergence threshold =      1.0E-07
     mixing beta               =       0.7000
     number of iterations used =            8  plain     mixing
     energy convergence thresh.=      1.0E-04
     force convergence thresh. =      1.0E-03
     Exchange-correlation= SLA  PZ   NOGX NOGC
                           (   1   1   0   0   0   0   0)
     nstep                     =           50


     celldm(1)=   7.322689  celldm(2)=   0.000000  celldm(3)=   0.000000
     celldm(4)=   0.000000  celldm(5)=   0.000000  celldm(6)=   0.000000

     crystal axes: (cart. coord. in units of alat)
               a(1) = (   1.000000   0.000000   0.000000 )  
               a(2) = (   0.000000   1.000000   0.000000 )  
               a(3) = (   0.000000   0.000000   1.000000 )  

     reciprocal axes: (cart. coord. in units 2 pi/alat)
               b(1) = (  1.000000  0.000000  0.000000 )  
               b(2) = (  0.000000  1.000000  0.000000 )  
               b(3) = (  0.000000  0.000000  1.000000 )  


     PseudoPot. # 1 for O  read from file:
     /home/bond/Software/QE/qe-7.4.1/pseudo/O.pz-rrkjus.UPF
     MD5 check sum: 24fb942a68ef5d262e498166c462ef4a
     Pseudo is Ultrasoft, Zval =  6.0
     Generated by new atomic code, or converted to UPF format
     Using radial grid of 1269 points,  4 beta functions with: 
                l(1) =   0
                l(2) =   0
                l(3) =   1
                l(4) =   1
     Q(r) pseudized with 0 coefficients 


     PseudoPot. # 2 for Pb read from file:
     /home/bond/Software/QE/qe-7.4.1/pseudo/Pb.pz-d-van.UPF
     MD5 check sum: 4e1e5920686a026ae26139ac417581ff
     Pseudo is Ultrasoft, Zval = 14.0
     Generated by new atomic code, or converted to UPF format
     Using radial grid of  899 points,  6 beta functions with: 
                l(1) =   0
                l(2) =   0
                l(3) =   1
                l(4) =   1
                l(5) =   2
                l(6) =   2
     Q(r) pseudized with  8 coefficients,  rinner =    1.000   1.000   1.000
                                                       1.000   1.000

     PseudoPot. # 3 for Ti read from file:
     /home/bond/Software/QE/qe-7.4.1/pseudo/Ti.pz-sp-van_ak.UPF
     MD5 check sum: 545d0e6e05332b8871a8093f427cb0ca
     Pseudo is Ultrasoft, Zval = 12.0
     Generated by new atomic code, or converted to UPF format
     Using radial grid of  851 points,  6 beta functions with: 
                l(1) =   0
                l(2) =   0
                l(3) =   1
                l(4) =   1
                l(5) =   2
                l(6) =   2
     Q(r) pseudized with  8 coefficients,  rinner =    1.000   1.000   1.000
                                                       1.000   1.000

     atomic species   valence    mass     pseudopotential
     O                 6.00    15.99900     O ( 1.00)
     Pb               14.00   207.20000     Pb( 1.00)
     Ti               12.00    47.86700     Ti( 1.00)

      8 Sym. Ops. (no inversion) found



   Cartesian axes

     site n.     atom                  positions (alat units)
         1        Pb     tau(   1) = (   0.0000000   0.0000000   0.0000000  )
         2        Ti     tau(   2) = (   0.5000000   0.5000000   0.5200000  )
         3        O      tau(   3) = (   0.0000000   0.5000000   0.5000000  )
         4        O      tau(   4) = (   0.5000000   0.0000000   0.5000000  )
         5        O      tau(   5) = (   0.5000000   0.5000000   0.0000000  )

     number of k points=     6
                       cart. coord. in units 2pi/alat
        k(    1) = (   0.1250000   0.1250000   0.1250000), wk =   0.2500000
        k(    2) = (   0.1250000   0.1250000   0.3750000), wk =   0.2500000
        k(    3) = (   0.1250000   0.3750000   0.3750000), wk =   0.5000000
        k(    4) = (   0.3750000   0.3750000   0.3750000), wk =   0.2500000
        k(    5) = (   0.3750000  -0.1250000   0.1250000), wk =   0.5000000
        k(    6) = (   0.3750000  -0.3750000   0.1250000), wk =   0.2500000

     Dense  grid:    24573 G-vectors     FFT dimensions: (  40,  40,  40)

     Smooth grid:     8709 G-vectors     FFT dimensions: (  25,  25,  25)

     Estimated max dynamical RAM per process >      51.19 MB

     Estimated total dynamical RAM >     102.38 MB

     Initial potential from superposition of free atoms

     starting charge      42.9982, renormalised to      44.0000
     Starting wfcs are   31 randomized atomic wfcs

     total cpu time spent up to now is        1.8 secs

     Self-consistent Calculation

     iteration #  1     ecut=    30.00 Ry     beta= 0.70
     Davidson diagonalization with overlap
     ethr =  1.00E-02,  avg # of iterations =  2.0

     total cpu time spent up to now is        2.2 secs

     total energy              =    -332.61823851 Ry
     estimated scf accuracy    <       1.09759407 Ry

     iteration #  2     ecut=    30.00 Ry     beta= 0.70
     Davidson diagonalization with overlap
     ethr =  2.49E-03,  avg # of iterations =  6.3

     total cpu time spent up to now is        2.7 secs

     total energy              =    -332.37674293 Ry
     estimated scf accuracy    <       4.17831131 Ry

     iteration #  3     ecut=    30.00 Ry     beta= 0.70
     Davidson diagonalization with overlap
     ethr =  2.49E-03,  avg # of iterations =  5.2

     total cpu time spent up to now is        3.2 secs

     total energy              =    -333.15847598 Ry
     estimated scf accuracy    <       0.21860165 Ry

     iteration #  4     ecut=    30.00 Ry     beta= 0.70
     Davidson diagonalization with overlap
     ethr =  4.97E-04,  avg # of iterations =  2.0

     total cpu time spent up to now is        3.6 secs

     total energy              =    -333.15579878 Ry
     estimated scf accuracy    <       0.05965919 Ry

     iteration #  5     ecut=    30.00 Ry     beta= 0.70
     Davidson diagonalization with overlap
     ethr =  1.36E-04,  avg # of iterations =  4.8

     total cpu time spent up to now is        4.0 secs

     total energy              =    -333.18250061 Ry
     estimated scf accuracy    <       0.02169682 Ry

     iteration #  6     ecut=    30.00 Ry     beta= 0.70
     Davidson diagonalization with overlap
     ethr =  4.93E-05,  avg # of iterations =  2.3

     total cpu time spent up to now is        4.3 secs

     total energy              =    -333.18151598 Ry
     estimated scf accuracy    <       0.00707460 Ry

     iteration #  7     ecut=    30.00 Ry     beta= 0.70
     Davidson diagonalization with overlap
     ethr =  1.61E-05,  avg # of iterations =  4.5

     total cpu time spent up to now is        4.7 secs

     total energy              =    -333.18375963 Ry
     estimated scf accuracy    <       0.00039610 Ry

     iteration #  8     ecut=    30.00 Ry     beta= 0.70
     Davidson diagonalization with overlap
     ethr =  9.00E-07,  avg # of iterations =  2.7

     total cpu time spent up to now is        5.1 secs

     total energy              =    -333.18370671 Ry
     estimated scf accuracy    <       0.00035582 Ry

     iteration #  9     ecut=    30.00 Ry     beta= 0.70
     Davidson diagonalization with overlap
     ethr =  8.09E-07,  avg # of iterations =  2.3

     total cpu time spent up to now is        5.5 secs

     total energy              =    -333.18368966 Ry
     estimated scf accuracy    <       0.00014049 Ry

     iteration # 10     ecut=    30.00 Ry     beta= 0.70
     Davidson diagonalization with overlap
     ethr =  3.19E-07,  avg # of iterations =  4.2

     total cpu time spent up to now is        5.8 secs

     total energy              =    -333.18371324 Ry
     estimated scf accuracy    <       0.00000506 Ry

     iteration # 11     ecut=    30.00 Ry     beta= 0.70
     Davidson diagonalization with overlap
     ethr =  1.15E-08,  avg # of iterations =  5.7

     total cpu time spent up to now is        6.3 secs

     total energy              =    -333.18371657 Ry
     estimated scf accuracy    <       0.00000201 Ry

     iteration # 12     ecut=    30.00 Ry     beta= 0.70
     Davidson diagonalization with overlap
     ethr =  4.56E-09,  avg # of iterations =  1.8

     total cpu time spent up to now is        6.7 secs

     total energy              =    -333.18371637 Ry
     estimated scf accuracy    <       0.00000118 Ry

     iteration # 13     ecut=    30.00 Ry     beta= 0.70
     Davidson diagonalization with overlap
     ethr =  2.68E-09,  avg # of iterations =  2.3

     total cpu time spent up to now is        7.0 secs

     total energy              =    -333.18371634 Ry
     estimated scf accuracy    <       0.00000035 Ry

     iteration # 14     ecut=    30.00 Ry     beta= 0.70
     Davidson diagonalization with overlap
     ethr =  7.96E-10,  avg # of iterations =  4.7

     total cpu time spent up to now is        7.5 secs

     End of self-consistent calculation

          k = 0.1250 0.1250 0.1250 (  1090 PWs)   bands (ev):

   -44.6231 -21.2540 -21.2302 -21.2292  -6.3257  -5.2621  -5.2351  -3.9593
    -3.9568  -3.9438  -3.7764  -3.7734   4.6618   7.3085   7.3217   8.0927
     9.1078   9.1420   9.8621   9.8856  10.0097  10.1598

          k = 0.1250 0.1250 0.3750 (  1095 PWs)   bands (ev):

   -44.6218 -21.3122 -21.2280 -21.2270  -5.9036  -5.1128  -5.0988  -4.0205
    -3.9544  -3.9401  -3.8719  -3.7458   3.9162   6.8393   7.3075   7.8631
     8.4775   8.7140   9.4130   9.9411  10.1477  10.8976

          k = 0.1250 0.3750 0.3750 (  1087 PWs)   bands (ev):

   -44.6206 -21.3086 -21.2839 -21.2254  -5.6886  -5.0089  -4.9317  -3.9938
    -3.9495  -3.8958  -3.8057  -3.6504   3.5534   6.7551   6.9078   7.1984
     7.5077   8.7026   9.4397   9.5031  10.0560  10.7218

          k = 0.3750 0.3750 0.3750 (  1082 PWs)   bands (ev):

   -44.6193 -21.3061 -21.2815 -21.2813  -5.3006  -5.1356  -5.1152  -3.9056
    -3.9023  -3.6145  -3.5502  -3.5409   4.1751   5.9392   5.9616   6.7177
     7.0624   7.0783   7.9956  10.6702  10.6988  10.7662

          k = 0.3750-0.1250 0.1250 (  1095 PWs)   bands (ev):

   -44.6219 -21.2876 -21.2518 -21.2275  -5.9216  -5.1355  -5.0663  -4.0191
    -3.9526  -3.9408  -3.8753  -3.7431   3.9272   6.8640   7.3566   7.8604
     8.4571   8.7740   9.3647   9.9454  10.0897  10.8695

          k = 0.3750-0.3750 0.1250 (  1087 PWs)   bands (ev):

   -44.6206 -21.2844 -21.2835 -21.2497  -5.7232  -4.9897  -4.9171  -3.9908
    -3.9486  -3.8925  -3.8043  -3.6624   3.5634   6.8306   6.8657   7.1845
     7.4906   8.6880   9.4767   9.5001  10.0454  10.7560

     highest occupied level (ev):    10.8976

!    total energy              =    -333.18371644 Ry
     estimated scf accuracy    <       0.00000001 Ry

     The total energy is the sum of the following terms:
     one-electron contribution =     -76.59569341 Ry
     hartree contribution      =      66.29543677 Ry
     xc contribution           =     -49.65426557 Ry
     ewald contribution        =    -273.22919423 Ry

     convergence has been achieved in  14 iterations

     Forces acting on atoms (cartesian axes, Ry/au):

     atom    1 type  2   force =     0.00000000    0.00000000    0.00870085
     atom    2 type  3   force =     0.00000000    0.00000000   -0.01354266
     atom    3 type  1   force =     0.00000000    0.00000000   -0.00018580
     atom    4 type  1   force =     0.00000000    0.00000000   -0.00018580
     atom    5 type  1   force =     0.00000000    0.00000000    0.00521340

     Total force =     0.005220     Total SCF correction =     0.000018


     Computing stress (Cartesian axis) and pressure

          total   stress  (Ry/bohr**3)                   (kbar)     P=      -11.19
  -0.00009655   0.00000000   0.00000000          -14.20        0.00        0.00
   0.00000000  -0.00009655   0.00000000            0.00      -14.20        0.00
   0.00000000   0.00000000  -0.00003518            0.00        0.00       -5.17


     BFGS Geometry Optimization
     Energy error            =      2.7E-05 Ry
     Gradient error          =      5.2E-03 Ry/Bohr

     number of scf cycles    =   1
     number of bfgs steps    =   0

     energy             new  =    -333.1837164375 Ry

     new trust radius        =       0.0052134033 bohr
     new conv_thr            =       0.0000001000 Ry


ATOMIC_POSITIONS (angstrom)
Pb               0.0000000000        0.0000000000        0.0000000000    0   0   0
Ti               1.9375000000        1.9375000000        2.0150000000    0   0   0
O                0.0000000000        1.9375000000        1.9374016787
O                1.9375000000        0.0000000000        1.9374016787
O                1.9375000000        1.9375000000        0.0027588142


     Message from routine punch:
     Nothing written, as per user request (disk_io='none')
     NEW-OLD atomic charge density approx. for the potential

     total cpu time spent up to now is        8.9 secs

     Self-consistent Calculation

     iteration #  1     ecut=    30.00 Ry     beta= 0.70
     Davidson diagonalization with overlap
     ethr =  1.00E-06,  avg # of iterations =  2.7

     Threshold (ethr) on eigenvalues was too large:
     Diagonalizing with lowered threshold

     Davidson diagonalization with overlap
     ethr =  6.49E-09,  avg # of iterations =  6.2

     total cpu time spent up to now is        9.6 secs

     total energy              =    -333.18373999 Ry
     estimated scf accuracy    <       0.00000464 Ry

     iteration #  2     ecut=    30.00 Ry     beta= 0.70
     Davidson diagonalization with overlap
     ethr =  1.05E-08,  avg # of iterations =  2.8

     total cpu time spent up to now is       10.0 secs

     total energy              =    -333.18374090 Ry
     estimated scf accuracy    <       0.00000071 Ry

     iteration #  3     ecut=    30.00 Ry     beta= 0.70
     Davidson diagonalization with overlap
     ethr =  1.61E-09,  avg # of iterations =  3.8

     total cpu time spent up to now is       10.4 secs

     total energy              =    -333.18374103 Ry
     estimated scf accuracy    <       0.00000021 Ry

     iteration #  4     ecut=    30.00 Ry     beta= 0.70
     Davidson diagonalization with overlap
     ethr =  4.78E-10,  avg # of iterations =  4.5

     total cpu time spent up to now is       10.8 secs

     End of self-consistent calculation

          k = 0.1250 0.1250 0.1250 (  1090 PWs)   bands (ev):

   -44.6263 -21.2555 -21.2335 -21.2324  -6.3256  -5.2608  -5.2358  -3.9588
    -3.9564  -3.9434  -3.7758  -3.7731   4.6623   7.3088   7.3212   8.0924
     9.1100   9.1435   9.8667   9.8863  10.0089  10.1599

          k = 0.1250 0.1250 0.3750 (  1095 PWs)   bands (ev):

   -44.6251 -21.3136 -21.2313 -21.2303  -5.9043  -5.1136  -5.0968  -4.0200
    -3.9539  -3.9398  -3.8716  -3.7452   3.9174   6.8399   7.3089   7.8619
     8.4777   8.7171   9.4128   9.9417  10.1468  10.8973

          k = 0.1250 0.3750 0.3750 (  1087 PWs)   bands (ev):

   -44.6238 -21.3100 -21.2871 -21.2287  -5.6892  -5.0076  -4.9316  -3.9933
    -3.9490  -3.8953  -3.8052  -3.6502   3.5542   6.7572   6.9065   7.1983
     7.5076   8.7018   9.4421   9.5028  10.0567  10.7232

          k = 0.3750 0.3750 0.3750 (  1082 PWs)   bands (ev):

   -44.6226 -21.3075 -21.2848 -21.2845  -5.3002  -5.1347  -5.1158  -3.9051
    -3.9019  -3.6140  -3.5495  -3.5409   4.1757   5.9406   5.9615   6.7174
     7.0626   7.0771   7.9963  10.6722  10.6994  10.7665

          k = 0.3750-0.1250 0.1250 (  1095 PWs)   bands (ev):

   -44.6251 -21.2908 -21.2533 -21.2308  -5.9211  -5.1346  -5.0670  -4.0187
    -3.9522  -3.9404  -3.8748  -3.7428   3.9277   6.8632   7.3568   7.8605
     8.4574   8.7740   9.3672   9.9462  10.0917  10.8707

          k = 0.3750-0.3750 0.1250 (  1087 PWs)   bands (ev):

   -44.6239 -21.2877 -21.2867 -21.2511  -5.7215  -4.9902  -4.9179  -3.9905
    -3.9482  -3.8922  -3.8040  -3.6615   3.5634   6.8298   6.8650   7.1861
     7.4925   8.6888   9.4772   9.5002  10.0460  10.7554

     highest occupied level (ev):    10.8973

!    total energy              =    -333.18374106 Ry
     estimated scf accuracy    <       0.00000005 Ry

     The total energy is the sum of the following terms:
     one-electron contribution =     -76.57673614 Ry
     hartree contribution      =      66.28532960 Ry
     xc contribution           =     -49.65349170 Ry
     ewald contribution        =    -273.23884282 Ry

     convergence has been achieved in   4 iterations

     Forces acting on atoms (cartesian axes, Ry/au):

     atom    1 type  2   force =     0.00000000    0.00000000    0.00861730
     atom    2 type  3   force =     0.00000000    0.00000000   -0.01307078
     atom    3 type  1   force =     0.00000000    0.00000000    0.00037191
     atom    4 type  1   force =     0.00000000    0.00000000    0.00037191
     atom    5 type  1   force =     0.00000000    0.00000000    0.00370965

     Total force =     0.003747     Total SCF correction =     0.000137


     Computing stress (Cartesian axis) and pressure

          total   stress  (Ry/bohr**3)                   (kbar)     P=      -11.30
  -0.00009589   0.00000000   0.00000000          -14.11        0.00        0.00
   0.00000000  -0.00009589   0.00000000            0.00      -14.11        0.00
   0.00000000   0.00000000  -0.00003857            0.00        0.00       -5.67

     Energy error            =      2.5E-05 Ry
     Gradient error          =      3.7E-03 Ry/Bohr

     number of scf cycles    =   2
     number of bfgs steps    =   1

     energy             old  =    -333.1837164375 Ry
     energy             new  =    -333.1837410637 Ry

     CASE: energy            _new < energy            _old

     new trust radius        =       0.0057347437 bohr
     new conv_thr            =       0.0000000010 Ry


ATOMIC_POSITIONS (angstrom)
Pb               0.0000000000        0.0000000000        0.0000000000    0   0   0
Ti               1.9375000000        1.9375000000        2.0150000000    0   0   0
O                0.0000000000        1.9375000000        1.9376723783
O                1.9375000000        0.0000000000        1.9376723783
O                1.9375000000        1.9375000000        0.0057935099


     Message from routine punch:
     Nothing written, as per user request (disk_io='none')
     NEW-OLD atomic charge density approx. for the potential

     total cpu time spent up to now is       12.3 secs

     Self-consistent Calculation

     iteration #  1     ecut=    30.00 Ry     beta= 0.70
     Davidson diagonalization with overlap
     ethr =  1.00E-06,  avg # of iterations =  3.0

     Threshold (ethr) on eigenvalues was too large:
     Diagonalizing with lowered threshold

     Davidson diagonalization with overlap
     ethr =  8.48E-09,  avg # of iterations =  6.3

     total cpu time spent up to now is       13.0 secs

     total energy              =    -333.18375582 Ry
     estimated scf accuracy    <       0.00000708 Ry

     iteration #  2     ecut=    30.00 Ry     beta= 0.70
     Davidson diagonalization with overlap
     ethr =  1.61E-08,  avg # of iterations =  5.5

     total cpu time spent up to now is       13.4 secs

     total energy              =    -333.18375581 Ry
     estimated scf accuracy    <       0.00000918 Ry

     iteration #  3     ecut=    30.00 Ry     beta= 0.70
     Davidson diagonalization with overlap
     ethr =  1.61E-08,  avg # of iterations =  4.8

     total cpu time spent up to now is       13.8 secs

     total energy              =    -333.18375795 Ry
     estimated scf accuracy    <       0.00000089 Ry

     iteration #  4     ecut=    30.00 Ry     beta= 0.70
     Davidson diagonalization with overlap
     ethr =  2.03E-09,  avg # of iterations =  3.7

     total cpu time spent up to now is       14.2 secs

     total energy              =    -333.18375809 Ry
     estimated scf accuracy    <       0.00000010 Ry

     iteration #  5     ecut=    30.00 Ry     beta= 0.70
     Davidson diagonalization with overlap
     ethr =  2.33E-10,  avg # of iterations =  4.7

     total cpu time spent up to now is       14.6 secs

     total energy              =    -333.18375813 Ry
     estimated scf accuracy    <       0.00000002 Ry

     iteration #  6     ecut=    30.00 Ry     beta= 0.70
     Davidson diagonalization with overlap
     ethr =  5.08E-11,  avg # of iterations =  4.2

     total cpu time spent up to now is       15.0 secs

     total energy              =    -333.18375813 Ry
     estimated scf accuracy    <          2.5E-09 Ry

     iteration #  7     ecut=    30.00 Ry     beta= 0.70
     Davidson diagonalization with overlap
     ethr =  5.58E-12,  avg # of iterations =  4.2

     total cpu time spent up to now is       15.4 secs

     End of self-consistent calculation

          k = 0.1250 0.1250 0.1250 (  1090 PWs)   bands (ev):

   -44.6288 -21.2562 -21.2359 -21.2349  -6.3260  -5.2604  -5.2364  -3.9582
    -3.9559  -3.9429  -3.7753  -3.7727   4.6628   7.3088   7.3205   8.0920
     9.1124   9.1444   9.8712   9.8867  10.0081  10.1593

          k = 0.1250 0.1250 0.3750 (  1095 PWs)   bands (ev):

   -44.6276 -21.3143 -21.2337 -21.2328  -5.9051  -5.1143  -5.0961  -4.0194
    -3.9533  -3.9393  -3.8712  -3.7446   3.9185   6.8395   7.3100   7.8608
     8.4778   8.7194   9.4128   9.9421  10.1460  10.8971

          k = 0.1250 0.3750 0.3750 (  1087 PWs)   bands (ev):

   -44.6263 -21.3108 -21.2896 -21.2311  -5.6898  -5.0073  -4.9318  -3.9927
    -3.9485  -3.8948  -3.8047  -3.6500   3.5549   6.7590   6.9047   7.1978
     7.5073   8.7012   9.4439   9.5026  10.0573  10.7239

          k = 0.3750 0.3750 0.3750 (  1082 PWs)   bands (ev):

   -44.6250 -21.3082 -21.2872 -21.2870  -5.3003  -5.1344  -5.1163  -3.9045
    -3.9014  -3.6135  -3.5490  -3.5407   4.1761   5.9416   5.9614   6.7169
     7.0620   7.0759   7.9969  10.6734  10.6996  10.7666

          k = 0.3750-0.1250 0.1250 (  1095 PWs)   bands (ev):

   -44.6276 -21.2933 -21.2540 -21.2333  -5.9213  -5.1345  -5.0676  -4.0181
    -3.9517  -3.9398  -3.8742  -3.7424   3.9282   6.8626   7.3569   7.8602
     8.4573   8.7738   9.3693   9.9467  10.0931  10.8714

          k = 0.3750-0.3750 0.1250 (  1087 PWs)   bands (ev):

   -44.6263 -21.2901 -21.2892 -21.2518  -5.7210  -4.9907  -4.9185  -3.9900
    -3.9477  -3.8918  -3.8035  -3.6607   3.5635   6.8293   6.8643   7.1875
     7.4940   8.6883   9.4772   9.4998  10.0462  10.7548

     highest occupied level (ev):    10.8971

!    total energy              =    -333.18375813 Ry
     estimated scf accuracy    <          3.5E-10 Ry

     The total energy is the sum of the following terms:
     one-electron contribution =     -76.55800986 Ry
     hartree contribution      =      66.27531568 Ry
     xc contribution           =     -49.65285750 Ry
     ewald contribution        =    -273.24820645 Ry

     convergence has been achieved in   7 iterations

     Forces acting on atoms (cartesian axes, Ry/au):

     atom    1 type  2   force =     0.00000000    0.00000000    0.00887900
     atom    2 type  3   force =     0.00000000    0.00000000   -0.01277046
     atom    3 type  1   force =     0.00000000    0.00000000    0.00085437
     atom    4 type  1   force =     0.00000000    0.00000000    0.00085437
     atom    5 type  1   force =     0.00000000    0.00000000    0.00218272

     Total force =     0.002495     Total SCF correction =     0.000016


     Computing stress (Cartesian axis) and pressure

          total   stress  (Ry/bohr**3)                   (kbar)     P=      -11.85
  -0.00009770   0.00000000   0.00000000          -14.37        0.00        0.00
   0.00000000  -0.00009770   0.00000000            0.00      -14.37        0.00
   0.00000000   0.00000000  -0.00004629            0.00        0.00       -6.81

     Energy error            =      1.7E-05 Ry
     Gradient error          =      2.2E-03 Ry/Bohr

     number of scf cycles    =   3
     number of bfgs steps    =   2

     energy             old  =    -333.1837410637 Ry
     energy             new  =    -333.1837581302 Ry

     CASE: energy            _new < energy            _old

     new trust radius        =       0.0086021155 bohr
     new conv_thr            =       0.0000000010 Ry


ATOMIC_POSITIONS (angstrom)
Pb               0.0000000000        0.0000000000        0.0000000000    0   0   0
Ti               1.9375000000        1.9375000000        2.0150000000    0   0   0
O                0.0000000000        1.9375000000        1.9387534079
O                1.9375000000        0.0000000000        1.9387534079
O                1.9375000000        1.9375000000        0.0103455534


     Message from routine punch:
     Nothing written, as per user request (disk_io='none')
     NEW-OLD atomic charge density approx. for the potential

     total cpu time spent up to now is       16.9 secs

     Self-consistent Calculation

     iteration #  1     ecut=    30.00 Ry     beta= 0.70
     Davidson diagonalization with overlap
     ethr =  1.00E-06,  avg # of iterations =  3.7

     Threshold (ethr) on eigenvalues was too large:
     Diagonalizing with lowered threshold

     Davidson diagonalization with overlap
     ethr =  2.31E-08,  avg # of iterations =  5.0

     total cpu time spent up to now is       17.6 secs

     total energy              =    -333.18376916 Ry
     estimated scf accuracy    <       0.00001269 Ry

     iteration #  2     ecut=    30.00 Ry     beta= 0.70
     Davidson diagonalization with overlap
     ethr =  2.88E-08,  avg # of iterations =  4.3

     total cpu time spent up to now is       18.0 secs

     total energy              =    -333.18377019 Ry
     estimated scf accuracy    <       0.00000563 Ry

     iteration #  3     ecut=    30.00 Ry     beta= 0.70
     Davidson diagonalization with overlap
     ethr =  1.28E-08,  avg # of iterations =  4.5

     total cpu time spent up to now is       18.4 secs

     total energy              =    -333.18377155 Ry
     estimated scf accuracy    <       0.00000276 Ry

     iteration #  4     ecut=    30.00 Ry     beta= 0.70
     Davidson diagonalization with overlap
     ethr =  6.27E-09,  avg # of iterations =  3.7

     total cpu time spent up to now is       18.8 secs

     total energy              =    -333.18377198 Ry
     estimated scf accuracy    <       0.00000006 Ry

     iteration #  5     ecut=    30.00 Ry     beta= 0.70
     Davidson diagonalization with overlap
     ethr =  1.44E-10,  avg # of iterations =  6.5

     total cpu time spent up to now is       19.3 secs

     total energy              =    -333.18377206 Ry
     estimated scf accuracy    <       0.00000020 Ry

     iteration #  6     ecut=    30.00 Ry     beta= 0.70
     Davidson diagonalization with overlap
     ethr =  1.44E-10,  avg # of iterations =  4.0

     total cpu time spent up to now is       19.7 secs

     total energy              =    -333.18377205 Ry
     estimated scf accuracy    <       0.00000006 Ry

     iteration #  7     ecut=    30.00 Ry     beta= 0.70
     Davidson diagonalization with overlap
     ethr =  1.32E-10,  avg # of iterations =  4.5

     total cpu time spent up to now is       20.2 secs

     End of self-consistent calculation

          k = 0.1250 0.1250 0.1250 (  1090 PWs)   bands (ev):

   -44.6326 -21.2574 -21.2398 -21.2387  -6.3263  -5.2592  -5.2376  -3.9574
    -3.9553  -3.9423  -3.7746  -3.7722   4.6634   7.3090   7.3195   8.0916
     9.1161   9.1459   9.8792   9.8879  10.0065  10.1580

          k = 0.1250 0.1250 0.3750 (  1095 PWs)   bands (ev):

   -44.6314 -21.3155 -21.2376 -21.2366  -5.9063  -5.1157  -5.0942  -4.0187
    -3.9525  -3.9387  -3.8708  -3.7439   3.9203   6.8398   7.3125   7.8594
     8.4775   8.7235   9.4124   9.9432  10.1445  10.8964

          k = 0.1250 0.3750 0.3750 (  1087 PWs)   bands (ev):

   -44.6301 -21.3119 -21.2934 -21.2350  -5.6909  -5.0062  -4.9319  -3.9920
    -3.9478  -3.8941  -3.8041  -3.6497   3.5559   6.7626   6.9017   7.1974
     7.5070   8.7001   9.4467   9.5022  10.0580  10.7256

          k = 0.3750 0.3750 0.3750 (  1082 PWs)   bands (ev):

   -44.6288 -21.3094 -21.2910 -21.2908  -5.3001  -5.1335  -5.1171  -3.9037
    -3.9009  -3.6128  -3.5482  -3.5406   4.1767   5.9432   5.9611   6.7167
     7.0612   7.0735   7.9977  10.6758  10.6999  10.7669

          k = 0.3750-0.1250 0.1250 (  1095 PWs)   bands (ev):

   -44.6314 -21.2971 -21.2552 -21.2371  -5.9210  -5.1339  -5.0686  -4.0175
    -3.9511  -3.9392  -3.8735  -3.7419   3.9288   6.8613   7.3569   7.8599
     8.4575   8.7731   9.3728   9.9477  10.0959  10.8727

          k = 0.3750-0.3750 0.1250 (  1087 PWs)   bands (ev):

   -44.6301 -21.2939 -21.2930 -21.2531  -5.7192  -4.9916  -4.9197  -3.9895
    -3.9471  -3.8914  -3.8030  -3.6596   3.5635   6.8284   6.8631   7.1893
     7.4962   8.6884   9.4773   9.4995  10.0470  10.7538

     highest occupied level (ev):    10.8964

!    total energy              =    -333.18377207 Ry
     estimated scf accuracy    <          5.8E-10 Ry

     The total energy is the sum of the following terms:
     one-electron contribution =     -76.53432452 Ry
     hartree contribution      =      66.26247883 Ry
     xc contribution           =     -49.65190590 Ry
     ewald contribution        =    -273.26002048 Ry

     convergence has been achieved in   7 iterations

     Forces acting on atoms (cartesian axes, Ry/au):

     atom    1 type  2   force =     0.00000000    0.00000000    0.00892014
     atom    2 type  3   force =     0.00000000    0.00000000   -0.01220486
     atom    3 type  1   force =     0.00000000    0.00000000    0.00154153
     atom    4 type  1   force =     0.00000000    0.00000000    0.00154153
     atom    5 type  1   force =     0.00000000    0.00000000    0.00020167

     Total force =     0.002189     Total SCF correction =     0.000030


     Computing stress (Cartesian axis) and pressure

          total   stress  (Ry/bohr**3)                   (kbar)     P=      -12.40
  -0.00009901   0.00000000   0.00000000          -14.57        0.00        0.00
   0.00000000  -0.00009901   0.00000000            0.00      -14.57        0.00
   0.00000000   0.00000000  -0.00005493            0.00        0.00       -8.08

     Energy error            =      1.4E-05 Ry
     Gradient error          =      1.5E-03 Ry/Bohr

     number of scf cycles    =   4
     number of bfgs steps    =   3

     energy             old  =    -333.1837581302 Ry
     energy             new  =    -333.1837720666 Ry

     CASE: energy            _new < energy            _old

     new trust radius        =       0.0063508169 bohr
     new conv_thr            =       0.0000000010 Ry


ATOMIC_POSITIONS (angstrom)
Pb               0.0000000000        0.0000000000        0.0000000000    0   0   0
Ti               1.9375000000        1.9375000000        2.0150000000    0   0   0
O                0.0000000000        1.9375000000        1.9405047042
O                1.9375000000        0.0000000000        1.9405047042
O                1.9375000000        1.9375000000        0.0137062609


     Message from routine punch:
     Nothing written, as per user request (disk_io='none')
     NEW-OLD atomic charge density approx. for the potential

     total cpu time spent up to now is       21.7 secs

     Self-consistent Calculation

     iteration #  1     ecut=    30.00 Ry     beta= 0.70
     Davidson diagonalization with overlap
     ethr =  1.00E-06,  avg # of iterations =  3.3

     Threshold (ethr) on eigenvalues was too large:
     Diagonalizing with lowered threshold

     Davidson diagonalization with overlap
     ethr =  1.15E-08,  avg # of iterations =  6.0

     total cpu time spent up to now is       22.4 secs

     total energy              =    -333.18377950 Ry
     estimated scf accuracy    <       0.00000740 Ry

     iteration #  2     ecut=    30.00 Ry     beta= 0.70
     Davidson diagonalization with overlap
     ethr =  1.68E-08,  avg # of iterations =  4.3

     total cpu time spent up to now is       22.8 secs

     total energy              =    -333.18377995 Ry
     estimated scf accuracy    <       0.00000256 Ry

     iteration #  3     ecut=    30.00 Ry     beta= 0.70
     Davidson diagonalization with overlap
     ethr =  5.82E-09,  avg # of iterations =  4.8

     total cpu time spent up to now is       23.2 secs

     total energy              =    -333.18378059 Ry
     estimated scf accuracy    <       0.00000177 Ry

     iteration #  4     ecut=    30.00 Ry     beta= 0.70
     Davidson diagonalization with overlap
     ethr =  4.02E-09,  avg # of iterations =  3.7

     total cpu time spent up to now is       23.6 secs

     total energy              =    -333.18378084 Ry
     estimated scf accuracy    <       0.00000006 Ry

     iteration #  5     ecut=    30.00 Ry     beta= 0.70
     Davidson diagonalization with overlap
     ethr =  1.30E-10,  avg # of iterations =  6.2

     total cpu time spent up to now is       24.1 secs

     total energy              =    -333.18378090 Ry
     estimated scf accuracy    <       0.00000016 Ry

     iteration #  6     ecut=    30.00 Ry     beta= 0.70
     Davidson diagonalization with overlap
     ethr =  1.30E-10,  avg # of iterations =  4.0

     total cpu time spent up to now is       24.5 secs

     total energy              =    -333.18378090 Ry
     estimated scf accuracy    <       0.00000004 Ry

     iteration #  7     ecut=    30.00 Ry     beta= 0.70
     Davidson diagonalization with overlap
     ethr =  9.49E-11,  avg # of iterations =  3.3

     total cpu time spent up to now is       24.9 secs

     total energy              =    -333.18378090 Ry
     estimated scf accuracy    <          3.8E-09 Ry

     iteration #  8     ecut=    30.00 Ry     beta= 0.70
     Davidson diagonalization with overlap
     ethr =  8.59E-12,  avg # of iterations =  5.5

     total cpu time spent up to now is       25.3 secs

     total energy              =    -333.18378090 Ry
     estimated scf accuracy    <          2.2E-09 Ry

     iteration #  9     ecut=    30.00 Ry     beta= 0.70
     Davidson diagonalization with overlap
     ethr =  5.01E-12,  avg # of iterations =  2.5

     total cpu time spent up to now is       25.7 secs

     End of self-consistent calculation

          k = 0.1250 0.1250 0.1250 (  1090 PWs)   bands (ev):

   -44.6354 -21.2585 -21.2426 -21.2416  -6.3266  -5.2585  -5.2386  -3.9569
    -3.9549  -3.9418  -3.7741  -3.7719   4.6638   7.3093   7.3189   8.0916
     9.1189   9.1469   9.8859   9.8891  10.0049  10.1561

          k = 0.1250 0.1250 0.3750 (  1095 PWs)   bands (ev):

   -44.6342 -21.3165 -21.2404 -21.2395  -5.9073  -5.1169  -5.0928  -4.0181
    -3.9519  -3.9383  -3.8705  -3.7434   3.9216   6.8400   7.3149   7.8587
     8.4766   8.7264   9.4118   9.9442  10.1431  10.8956

          k = 0.1250 0.3750 0.3750 (  1087 PWs)   bands (ev):

   -44.6329 -21.3130 -21.2963 -21.2378  -5.6919  -5.0054  -4.9320  -3.9914
    -3.9473  -3.8936  -3.8036  -3.6496   3.5565   6.7658   6.8988   7.1970
     7.5066   8.6990   9.4485   9.5017  10.0584  10.7269

          k = 0.3750 0.3750 0.3750 (  1082 PWs)   bands (ev):

   -44.6316 -21.3104 -21.2939 -21.2936  -5.3000  -5.1328  -5.1179  -3.9031
    -3.9005  -3.6123  -3.5476  -3.5406   4.1770   5.9444   5.9606   6.7169
     7.0599   7.0711   7.9982  10.6776  10.7000  10.7671

          k = 0.3750-0.1250 0.1250 (  1095 PWs)   bands (ev):

   -44.6342 -21.2999 -21.2563 -21.2399  -5.9209  -5.1336  -5.0694  -4.0171
    -3.9506  -3.9387  -3.8729  -3.7415   3.9292   6.8601   7.3566   7.8598
     8.4578   8.7722   9.3752   9.9486  10.0982  10.8735

          k = 0.3750-0.3750 0.1250 (  1087 PWs)   bands (ev):

   -44.6329 -21.2968 -21.2959 -21.2541  -5.7179  -4.9923  -4.9206  -3.9892
    -3.9466  -3.8910  -3.8027  -3.6587   3.5634   6.8276   6.8619   7.1903
     7.4972   8.6883   9.4769   9.4993  10.0477  10.7528

     highest occupied level (ev):    10.8956

!    total energy              =    -333.18378090 Ry
     estimated scf accuracy    <          6.7E-10 Ry

     The total energy is the sum of the following terms:
     one-electron contribution =     -76.52181335 Ry
     hartree contribution      =      66.25557312 Ry
     xc contribution           =     -49.65136076 Ry
     ewald contribution        =    -273.26617991 Ry

     convergence has been achieved in   9 iterations

     Forces acting on atoms (cartesian axes, Ry/au):

     atom    1 type  2   force =     0.00000000    0.00000000    0.00883943
     atom    2 type  3   force =     0.00000000    0.00000000   -0.01180515
     atom    3 type  1   force =     0.00000000    0.00000000    0.00191920
     atom    4 type  1   force =     0.00000000    0.00000000    0.00191920
     atom    5 type  1   force =     0.00000000    0.00000000   -0.00087269

     Total force =     0.002851     Total SCF correction =     0.000007


     Computing stress (Cartesian axis) and pressure

          total   stress  (Ry/bohr**3)                   (kbar)     P=      -12.76
  -0.00009971   0.00000000   0.00000000          -14.67        0.00        0.00
   0.00000000  -0.00009971   0.00000000            0.00      -14.67        0.00
   0.00000000   0.00000000  -0.00006085            0.00        0.00       -8.95

     Energy error            =      8.8E-06 Ry
     Gradient error          =      1.9E-03 Ry/Bohr

     number of scf cycles    =   5
     number of bfgs steps    =   4

     energy             old  =    -333.1837720666 Ry
     energy             new  =    -333.1837809023 Ry

     CASE: energy            _new < energy            _old

     new trust radius        =       0.0069858986 bohr
     new conv_thr            =       0.0000000010 Ry


ATOMIC_POSITIONS (angstrom)
Pb               0.0000000000        0.0000000000        0.0000000000    0   0   0
Ti               1.9375000000        1.9375000000        2.0150000000    0   0   0
O                0.0000000000        1.9375000000        1.9433326230
O                1.9375000000        0.0000000000        1.9433326230
O                1.9375000000        1.9375000000        0.0174030392


     Message from routine punch:
     Nothing written, as per user request (disk_io='none')
     NEW-OLD atomic charge density approx. for the potential

     total cpu time spent up to now is       27.2 secs

     Self-consistent Calculation

     iteration #  1     ecut=    30.00 Ry     beta= 0.70
     Davidson diagonalization with overlap
     ethr =  1.00E-06,  avg # of iterations =  3.8

     Threshold (ethr) on eigenvalues was too large:
     Diagonalizing with lowered threshold

     Davidson diagonalization with overlap
     ethr =  1.72E-08,  avg # of iterations =  5.0

     total cpu time spent up to now is       27.9 secs

     total energy              =    -333.18379289 Ry
     estimated scf accuracy    <       0.00001023 Ry

     iteration #  2     ecut=    30.00 Ry     beta= 0.70
     Davidson diagonalization with overlap
     ethr =  2.32E-08,  avg # of iterations =  2.8

     total cpu time spent up to now is       28.4 secs

     total energy              =    -333.18379395 Ry
     estimated scf accuracy    <       0.00000136 Ry

     iteration #  3     ecut=    30.00 Ry     beta= 0.70
     Davidson diagonalization with overlap
     ethr =  3.08E-09,  avg # of iterations =  4.7

     total cpu time spent up to now is       28.8 secs

     total energy              =    -333.18379414 Ry
     estimated scf accuracy    <       0.00000144 Ry

     iteration #  4     ecut=    30.00 Ry     beta= 0.70
     Davidson diagonalization with overlap
     ethr =  3.08E-09,  avg # of iterations =  4.0

     total cpu time spent up to now is       29.2 secs

     total energy              =    -333.18379445 Ry
     estimated scf accuracy    <       0.00000007 Ry

     iteration #  5     ecut=    30.00 Ry     beta= 0.70
     Davidson diagonalization with overlap
     ethr =  1.65E-10,  avg # of iterations =  4.7

     total cpu time spent up to now is       29.6 secs

     total energy              =    -333.18379447 Ry
     estimated scf accuracy    <       0.00000003 Ry

     iteration #  6     ecut=    30.00 Ry     beta= 0.70
     Davidson diagonalization with overlap
     ethr =  6.97E-11,  avg # of iterations =  4.3

     total cpu time spent up to now is       30.0 secs

     total energy              =    -333.18379447 Ry
     estimated scf accuracy    <          1.3E-09 Ry

     iteration #  7     ecut=    30.00 Ry     beta= 0.70
     Davidson diagonalization with overlap
     ethr =  3.04E-12,  avg # of iterations =  4.5

     total cpu time spent up to now is       30.5 secs

     End of self-consistent calculation

          k = 0.1250 0.1250 0.1250 (  1090 PWs)   bands (ev):

   -44.6381 -21.2594 -21.2454 -21.2444  -6.3268  -5.2577  -5.2400  -3.9564
    -3.9546  -3.9414  -3.7737  -3.7717   4.6643   7.3098   7.3182   8.0918
     9.1221   9.1479   9.8907   9.8941  10.0028  10.1534

          k = 0.1250 0.1250 0.3750 (  1095 PWs)   bands (ev):

   -44.6369 -21.3174 -21.2432 -21.2423  -5.9084  -5.1184  -5.0912  -4.0176
    -3.9514  -3.9379  -3.8702  -3.7429   3.9231   6.8404   7.3180   7.8583
     8.4751   8.7295   9.4109   9.9456  10.1414  10.8944

          k = 0.1250 0.3750 0.3750 (  1087 PWs)   bands (ev):

   -44.6356 -21.3138 -21.2991 -21.2406  -5.6930  -5.0046  -4.9320  -3.9910
    -3.9468  -3.8931  -3.8032  -3.6495   3.5572   6.7698   6.8950   7.1966
     7.5063   8.6978   9.4503   9.5012  10.0587  10.7284

          k = 0.3750 0.3750 0.3750 (  1082 PWs)   bands (ev):

   -44.6343 -21.3113 -21.2967 -21.2964  -5.2998  -5.1321  -5.1187  -3.9026
    -3.9002  -3.6118  -3.5470  -3.5405   4.1772   5.9456   5.9600   6.7173
     7.0580   7.0679   7.9986  10.6797  10.7000  10.7675

          k = 0.3750-0.1250 0.1250 (  1095 PWs)   bands (ev):

   -44.6369 -21.3027 -21.2571 -21.2427  -5.9206  -5.1334  -5.0703  -4.0167
    -3.9502  -3.9383  -3.8724  -3.7412   3.9296   6.8587   7.3561   7.8597
     8.4582   8.7708   9.3779   9.9496  10.1009  10.8743

          k = 0.3750-0.3750 0.1250 (  1087 PWs)   bands (ev):

   -44.6356 -21.2996 -21.2987 -21.2550  -5.7163  -4.9931  -4.9217  -3.9889
    -3.9462  -3.8907  -3.8023  -3.6579   3.5631   6.8268   6.8604   7.1910
     7.4980   8.6882   9.4762   9.4991  10.0486  10.7517

     highest occupied level (ev):    10.8944

!    total energy              =    -333.18379447 Ry
     estimated scf accuracy    <          5.3E-10 Ry

     The total energy is the sum of the following terms:
     one-electron contribution =     -76.51268133 Ry
     hartree contribution      =      66.25030542 Ry
     xc contribution           =     -49.65083655 Ry
     ewald contribution        =    -273.27058202 Ry

     convergence has been achieved in   7 iterations

     Forces acting on atoms (cartesian axes, Ry/au):

     atom    1 type  2   force =     0.00000000    0.00000000    0.00869605
     atom    2 type  3   force =     0.00000000    0.00000000   -0.01140325
     atom    3 type  1   force =     0.00000000    0.00000000    0.00220347
     atom    4 type  1   force =     0.00000000    0.00000000    0.00220347
     atom    5 type  1   force =     0.00000000    0.00000000   -0.00169974

     Total force =     0.003550     Total SCF correction =     0.000013


     Computing stress (Cartesian axis) and pressure

          total   stress  (Ry/bohr**3)                   (kbar)     P=      -13.06
  -0.00009995   0.00000000   0.00000000          -14.70        0.00        0.00
   0.00000000  -0.00009995   0.00000000            0.00      -14.70        0.00
   0.00000000   0.00000000  -0.00006647            0.00        0.00       -9.78

     Energy error            =      1.4E-05 Ry
     Gradient error          =      2.2E-03 Ry/Bohr

     number of scf cycles    =   6
     number of bfgs steps    =   5

     energy             old  =    -333.1837809023 Ry
     energy             new  =    -333.1837944743 Ry

     CASE: energy            _new < energy            _old

     new trust radius        =       0.0104788478 bohr
     new conv_thr            =       0.0000000010 Ry


ATOMIC_POSITIONS (angstrom)
Pb               0.0000000000        0.0000000000        0.0000000000    0   0   0
Ti               1.9375000000        1.9375000000        2.0150000000    0   0   0
O                0.0000000000        1.9375000000        1.9484723702
O                1.9375000000        0.0000000000        1.9484723702
O                1.9375000000        1.9375000000        0.0229482067


     Message from routine punch:
     Nothing written, as per user request (disk_io='none')
     NEW-OLD atomic charge density approx. for the potential

     total cpu time spent up to now is       32.0 secs

     Self-consistent Calculation

     iteration #  1     ecut=    30.00 Ry     beta= 0.70
     Davidson diagonalization with overlap
     ethr =  1.00E-06,  avg # of iterations =  4.7

     Threshold (ethr) on eigenvalues was too large:
     Diagonalizing with lowered threshold

     Davidson diagonalization with overlap
     ethr =  5.50E-08,  avg # of iterations =  4.5

     total cpu time spent up to now is       32.8 secs

     total energy              =    -333.18381641 Ry
     estimated scf accuracy    <       0.00002616 Ry

     iteration #  2     ecut=    30.00 Ry     beta= 0.70
     Davidson diagonalization with overlap
     ethr =  5.95E-08,  avg # of iterations =  2.7

     total cpu time spent up to now is       33.3 secs

     total energy              =    -333.18381926 Ry
     estimated scf accuracy    <       0.00000290 Ry

     iteration #  3     ecut=    30.00 Ry     beta= 0.70
     Davidson diagonalization with overlap
     ethr =  6.58E-09,  avg # of iterations =  4.7

     total cpu time spent up to now is       33.7 secs

     total energy              =    -333.18381961 Ry
     estimated scf accuracy    <       0.00000324 Ry

     iteration #  4     ecut=    30.00 Ry     beta= 0.70
     Davidson diagonalization with overlap
     ethr =  6.58E-09,  avg # of iterations =  4.3

     total cpu time spent up to now is       34.1 secs

     total energy              =    -333.18382034 Ry
     estimated scf accuracy    <       0.00000015 Ry

     iteration #  5     ecut=    30.00 Ry     beta= 0.70
     Davidson diagonalization with overlap
     ethr =  3.48E-10,  avg # of iterations =  4.7

     total cpu time spent up to now is       34.5 secs

     total energy              =    -333.18382037 Ry
     estimated scf accuracy    <       0.00000009 Ry

     iteration #  6     ecut=    30.00 Ry     beta= 0.70
     Davidson diagonalization with overlap
     ethr =  2.08E-10,  avg # of iterations =  4.3

     total cpu time spent up to now is       34.9 secs

     total energy              =    -333.18382038 Ry
     estimated scf accuracy    <          3.0E-09 Ry

     iteration #  7     ecut=    30.00 Ry     beta= 0.70
     Davidson diagonalization with overlap
     ethr =  6.86E-12,  avg # of iterations =  5.3

     total cpu time spent up to now is       35.4 secs

     total energy              =    -333.18382038 Ry
     estimated scf accuracy    <          1.3E-09 Ry

     iteration #  8     ecut=    30.00 Ry     beta= 0.70
     Davidson diagonalization with overlap
     ethr =  3.02E-12,  avg # of iterations =  4.3

     total cpu time spent up to now is       35.9 secs

     End of self-consistent calculation

          k = 0.1250 0.1250 0.1250 (  1090 PWs)   bands (ev):

   -44.6420 -21.2607 -21.2494 -21.2484  -6.3272  -5.2567  -5.2422  -3.9556
    -3.9540  -3.9408  -3.7731  -3.7712   4.6650   7.3105   7.3174   8.0924
     9.1268   9.1491   9.8934   9.9069   9.9994  10.1484

          k = 0.1250 0.1250 0.3750 (  1095 PWs)   bands (ev):

   -44.6408 -21.3187 -21.2473 -21.2463  -5.9102  -5.1209  -5.0889  -4.0168
    -3.9507  -3.9373  -3.8697  -3.7421   3.9253   6.8412   7.3231   7.8579
     8.4724   8.7338   9.4094   9.9478  10.1386  10.8925

          k = 0.1250 0.3750 0.3750 (  1087 PWs)   bands (ev):

   -44.6395 -21.3151 -21.3031 -21.2447  -5.6947  -5.0036  -4.9321  -3.9902
    -3.9462  -3.8924  -3.8025  -3.6493   3.5582   6.7761   6.8886   7.1959
     7.5056   8.6959   9.4524   9.5003  10.0590  10.7306

          k = 0.3750 0.3750 0.3750 (  1082 PWs)   bands (ev):

   -44.6382 -21.3126 -21.3008 -21.3005  -5.2995  -5.1311  -5.1200  -3.9018
    -3.8997  -3.6110  -3.5461  -3.5404   4.1773   5.9473   5.9589   6.7182
     7.0549   7.0627   7.9993  10.6826  10.6997  10.7680

          k = 0.3750-0.1250 0.1250 (  1095 PWs)   bands (ev):

   -44.6408 -21.3068 -21.2585 -21.2468  -5.9203  -5.1333  -5.0718  -4.0161
    -3.9496  -3.9377  -3.8715  -3.7407   3.9302   6.8564   7.3551   7.8596
     8.4589   8.7685   9.3815   9.9510  10.1049  10.8754

          k = 0.3750-0.3750 0.1250 (  1087 PWs)   bands (ev):

   -44.6395 -21.3037 -21.3027 -21.2563  -5.7139  -4.9945  -4.9234  -3.9884
    -3.9455  -3.8902  -3.8017  -3.6567   3.5626   6.8254   6.8580   7.1917
     7.4987   8.6880   9.4749   9.4988  10.0501  10.7500

     highest occupied level (ev):    10.8925

!    total energy              =    -333.18382038 Ry
     estimated scf accuracy    <          1.4E-10 Ry

     The total energy is the sum of the following terms:
     one-electron contribution =     -76.50444969 Ry
     hartree contribution      =      66.24522802 Ry
     xc contribution           =     -49.65020461 Ry
     ewald contribution        =    -273.27439410 Ry

     convergence has been achieved in   8 iterations

     Forces acting on atoms (cartesian axes, Ry/au):

     atom    1 type  2   force =     0.00000000    0.00000000    0.00840216
     atom    2 type  3   force =     0.00000000    0.00000000   -0.01086835
     atom    3 type  1   force =     0.00000000    0.00000000    0.00250406
     atom    4 type  1   force =     0.00000000    0.00000000    0.00250406
     atom    5 type  1   force =     0.00000000    0.00000000   -0.00254193

     Total force =     0.004359     Total SCF correction =     0.000006


     Computing stress (Cartesian axis) and pressure

          total   stress  (Ry/bohr**3)                   (kbar)     P=      -13.40
  -0.00009976   0.00000000   0.00000000          -14.67        0.00        0.00
   0.00000000  -0.00009976   0.00000000            0.00      -14.67        0.00
   0.00000000   0.00000000  -0.00007373            0.00        0.00      -10.85

     Energy error            =      2.6E-05 Ry
     Gradient error          =      2.5E-03 Ry/Bohr

     number of scf cycles    =   7
     number of bfgs steps    =   6

     energy             old  =    -333.1837944743 Ry
     energy             new  =    -333.1838203847 Ry

     CASE: energy            _new < energy            _old

     new trust radius        =       0.0157182718 bohr
     new conv_thr            =       0.0000000010 Ry


ATOMIC_POSITIONS (angstrom)
Pb               0.0000000000        0.0000000000        0.0000000000    0   0   0
Ti               1.9375000000        1.9375000000        2.0150000000    0   0   0
O                0.0000000000        1.9375000000        1.9567901214
O                1.9375000000        0.0000000000        1.9567901214
O                1.9375000000        1.9375000000        0.0310661496


     Message from routine punch:
     Nothing written, as per user request (disk_io='none')
     NEW-OLD atomic charge density approx. for the potential

     total cpu time spent up to now is       37.4 secs

     Self-consistent Calculation

     iteration #  1     ecut=    30.00 Ry     beta= 0.70
     Davidson diagonalization with overlap
     ethr =  1.00E-06,  avg # of iterations =  5.3

     total cpu time spent up to now is       37.8 secs

     total energy              =    -333.18384712 Ry
     estimated scf accuracy    <       0.00005949 Ry

     iteration #  2     ecut=    30.00 Ry     beta= 0.70
     Davidson diagonalization with overlap
     ethr =  1.35E-07,  avg # of iterations =  3.0

     total cpu time spent up to now is       38.2 secs

     total energy              =    -333.18385610 Ry
     estimated scf accuracy    <       0.00000442 Ry

     iteration #  3     ecut=    30.00 Ry     beta= 0.70
     Davidson diagonalization with overlap
     ethr =  1.00E-08,  avg # of iterations =  5.7

     total cpu time spent up to now is       38.7 secs

     total energy              =    -333.18385677 Ry
     estimated scf accuracy    <       0.00000390 Ry

     iteration #  4     ecut=    30.00 Ry     beta= 0.70
     Davidson diagonalization with overlap
     ethr =  8.86E-09,  avg # of iterations =  4.7

     total cpu time spent up to now is       39.1 secs

     total energy              =    -333.18385773 Ry
     estimated scf accuracy    <       0.00000066 Ry

     iteration #  5     ecut=    30.00 Ry     beta= 0.70
     Davidson diagonalization with overlap
     ethr =  1.50E-09,  avg # of iterations =  3.7

     total cpu time spent up to now is       39.5 secs

     total energy              =    -333.18385784 Ry
     estimated scf accuracy    <       0.00000006 Ry

     iteration #  6     ecut=    30.00 Ry     beta= 0.70
     Davidson diagonalization with overlap
     ethr =  1.26E-10,  avg # of iterations =  4.8

     total cpu time spent up to now is       39.9 secs

     total energy              =    -333.18385787 Ry
     estimated scf accuracy    <       0.00000002 Ry

     iteration #  7     ecut=    30.00 Ry     beta= 0.70
     Davidson diagonalization with overlap
     ethr =  4.63E-11,  avg # of iterations =  3.0

     total cpu time spent up to now is       40.3 secs

     total energy              =    -333.18385787 Ry
     estimated scf accuracy    <          4.1E-09 Ry

     iteration #  8     ecut=    30.00 Ry     beta= 0.70
     Davidson diagonalization with overlap
     ethr =  9.36E-12,  avg # of iterations =  4.5

     total cpu time spent up to now is       40.8 secs

     total energy              =    -333.18385787 Ry
     estimated scf accuracy    <          1.9E-09 Ry

     iteration #  9     ecut=    30.00 Ry     beta= 0.70
     Davidson diagonalization with overlap
     ethr =  4.36E-12,  avg # of iterations =  1.2

     total cpu time spent up to now is       41.1 secs

     total energy              =    -333.18385787 Ry
     estimated scf accuracy    <          1.0E-09 Ry

     iteration # 10     ecut=    30.00 Ry     beta= 0.70
     Davidson diagonalization with overlap
     ethr =  2.29E-12,  avg # of iterations =  4.2

     total cpu time spent up to now is       41.5 secs

     End of self-consistent calculation

          k = 0.1250 0.1250 0.1250 (  1090 PWs)   bands (ev):

   -44.6470 -21.2624 -21.2547 -21.2537  -6.3278  -5.2553  -5.2456  -3.9546
    -3.9532  -3.9399  -3.7722  -3.7704   4.6659   7.3114   7.3163   8.0933
     9.1331   9.1505   9.8971   9.9254   9.9942  10.1402

          k = 0.1250 0.1250 0.3750 (  1095 PWs)   bands (ev):

   -44.6458 -21.3203 -21.2525 -21.2516  -5.9129  -5.1248  -5.0856  -4.0156
    -3.9495  -3.9365  -3.8689  -3.7411   3.9283   6.8424   7.3301   7.8574
     8.4682   8.7397   9.4068   9.9509  10.1344  10.8898

          k = 0.1250 0.3750 0.3750 (  1087 PWs)   bands (ev):

   -44.6445 -21.3168 -21.3084 -21.2499  -5.6974  -5.0024  -4.9322  -3.9891
    -3.9452  -3.8913  -3.8015  -3.6489   3.5596   6.7856   6.8789   7.1948
     7.5047   8.6931   9.4544   9.4994  10.0594  10.7334

          k = 0.3750 0.3750 0.3750 (  1082 PWs)   bands (ev):

   -44.6432 -21.3142 -21.3060 -21.3058  -5.2993  -5.1296  -5.1221  -3.9006
    -3.8990  -3.6100  -3.5447  -3.5402   4.1772   5.9496   5.9571   6.7194
     7.0503   7.0552   8.0006  10.6864  10.6988  10.7687

          k = 0.3750-0.1250 0.1250 (  1095 PWs)   bands (ev):

   -44.6458 -21.3120 -21.2602 -21.2520  -5.9199  -5.1334  -5.0741  -4.0153
    -3.9487  -3.9367  -3.8701  -3.7399   3.9309   6.8530   7.3534   7.8596
     8.4597   8.7649   9.3862   9.9527  10.1103  10.8768

          k = 0.3750-0.3750 0.1250 (  1087 PWs)   bands (ev):

   -44.6445 -21.3089 -21.3080 -21.2580  -5.7105  -4.9967  -4.9261  -3.9877
    -3.9445  -3.8892  -3.8006  -3.6549   3.5617   6.8234   6.8546   7.1924
     7.4993   8.6878   9.4729   9.4983  10.0523  10.7472

     highest occupied level (ev):    10.8898

!    total energy              =    -333.18385787 Ry
     estimated scf accuracy    <          1.1E-10 Ry

     The total energy is the sum of the following terms:
     one-electron contribution =     -76.49945777 Ry
     hartree contribution      =      66.24144422 Ry
     xc contribution           =     -49.64949177 Ry
     ewald contribution        =    -273.27635255 Ry

     convergence has been achieved in  10 iterations

     Forces acting on atoms (cartesian axes, Ry/au):

     atom    1 type  2   force =     0.00000000    0.00000000    0.00791182
     atom    2 type  3   force =     0.00000000    0.00000000   -0.01021131
     atom    3 type  1   force =     0.00000000    0.00000000    0.00283620
     atom    4 type  1   force =     0.00000000    0.00000000    0.00283620
     atom    5 type  1   force =     0.00000000    0.00000000   -0.00337291

     Total force =     0.005241     Total SCF correction =     0.000002


     Computing stress (Cartesian axis) and pressure

          total   stress  (Ry/bohr**3)                   (kbar)     P=      -13.79
  -0.00009928   0.00000000   0.00000000          -14.60        0.00        0.00
   0.00000000  -0.00009928   0.00000000            0.00      -14.60        0.00
   0.00000000   0.00000000  -0.00008272            0.00        0.00      -12.17

     Energy error            =      3.7E-05 Ry
     Gradient error          =      3.4E-03 Ry/Bohr

     number of scf cycles    =   8
     number of bfgs steps    =   7

     energy             old  =    -333.1838203847 Ry
     energy             new  =    -333.1838578675 Ry

     CASE: energy            _new < energy            _old

     new trust radius        =       0.0235774077 bohr
     new conv_thr            =       0.0000000010 Ry


ATOMIC_POSITIONS (angstrom)
Pb               0.0000000000        0.0000000000        0.0000000000    0   0   0
Ti               1.9375000000        1.9375000000        2.0150000000    0   0   0
O                0.0000000000        1.9375000000        1.9692667482
O                1.9375000000        0.0000000000        1.9692667482
O                1.9375000000        1.9375000000        0.0426700503


     Message from routine punch:
     Nothing written, as per user request (disk_io='none')
     NEW-OLD atomic charge density approx. for the potential

     total cpu time spent up to now is       43.0 secs

     Self-consistent Calculation

     iteration #  1     ecut=    30.00 Ry     beta= 0.70
     Davidson diagonalization with overlap
     ethr =  1.00E-06,  avg # of iterations =  6.8

     total cpu time spent up to now is       43.5 secs

     total energy              =    -333.18390003 Ry
     estimated scf accuracy    <       0.00012937 Ry

     iteration #  2     ecut=    30.00 Ry     beta= 0.70
     Davidson diagonalization with overlap
     ethr =  2.94E-07,  avg # of iterations =  2.3

     total cpu time spent up to now is       43.9 secs

     total energy              =    -333.18391676 Ry
     estimated scf accuracy    <       0.00000766 Ry

     iteration #  3     ecut=    30.00 Ry     beta= 0.70
     Davidson diagonalization with overlap
     ethr =  1.74E-08,  avg # of iterations =  4.3

     total cpu time spent up to now is       44.3 secs

     total energy              =    -333.18391814 Ry
     estimated scf accuracy    <       0.00000399 Ry

     iteration #  4     ecut=    30.00 Ry     beta= 0.70
     Davidson diagonalization with overlap
     ethr =  9.08E-09,  avg # of iterations =  4.7

     total cpu time spent up to now is       44.8 secs

     total energy              =    -333.18391909 Ry
     estimated scf accuracy    <       0.00000135 Ry

     iteration #  5     ecut=    30.00 Ry     beta= 0.70
     Davidson diagonalization with overlap
     ethr =  3.07E-09,  avg # of iterations =  4.0

     total cpu time spent up to now is       45.2 secs

     total energy              =    -333.18391937 Ry
     estimated scf accuracy    <       0.00000004 Ry

     iteration #  6     ecut=    30.00 Ry     beta= 0.70
     Davidson diagonalization with overlap
     ethr =  1.00E-10,  avg # of iterations =  6.2

     total cpu time spent up to now is       45.6 secs

     total energy              =    -333.18391939 Ry
     estimated scf accuracy    <       0.00000009 Ry

     iteration #  7     ecut=    30.00 Ry     beta= 0.70
     Davidson diagonalization with overlap
     ethr =  1.00E-10,  avg # of iterations =  4.0

     total cpu time spent up to now is       46.0 secs

     total energy              =    -333.18391940 Ry
     estimated scf accuracy    <          6.5E-09 Ry

     iteration #  8     ecut=    30.00 Ry     beta= 0.70
     Davidson diagonalization with overlap
     ethr =  1.47E-11,  avg # of iterations =  4.8

     total cpu time spent up to now is       46.4 secs

     End of self-consistent calculation

          k = 0.1250 0.1250 0.1250 (  1090 PWs)   bands (ev):

   -44.6532 -21.2649 -21.2611 -21.2602  -6.3289  -5.2536  -5.2505  -3.9529
    -3.9520  -3.9384  -3.7709  -3.7688   4.6671   7.3123   7.3149   8.0947
     9.1405   9.1517   9.9015   9.9493   9.9873  10.1284

          k = 0.1250 0.1250 0.3750 (  1095 PWs)   bands (ev):

   -44.6519 -21.3226 -21.2590 -21.2581  -5.9170  -5.1304  -5.0815  -4.0137
    -3.9478  -3.9351  -3.8673  -3.7396   3.9322   6.8440   7.3386   7.8564
     8.4627   8.7467   9.4029   9.9545  10.1285  10.8864

          k = 0.1250 0.3750 0.3750 (  1087 PWs)   bands (ev):

   -44.6507 -21.3190 -21.3149 -21.2564  -5.7014  -5.0018  -4.9322  -3.9874
    -3.9436  -3.8895  -3.7998  -3.6479   3.5615   6.7984   6.8650   7.1932
     7.5032   8.6891   9.4553   9.4989  10.0602  10.7368

          k = 0.3750 0.3750 0.3750 (  1082 PWs)   bands (ev):

   -44.6494 -21.3165 -21.3125 -21.3123  -5.2995  -5.1277  -5.1253  -3.8988
    -3.8977  -3.6085  -3.5427  -3.5393   4.1765   5.9524   5.9544   6.7207
     7.0444   7.0457   8.0031  10.6909  10.6967  10.7697

          k = 0.3750-0.1250 0.1250 (  1095 PWs)   bands (ev):

   -44.6519 -21.3186 -21.2626 -21.2585  -5.9198  -5.1340  -5.0775  -4.0139
    -3.9472  -3.9352  -3.8676  -3.7384   3.9318   6.8484   7.3509   7.8594
     8.4603   8.7603   9.3916   9.9545  10.1165  10.8789

          k = 0.3750-0.3750 0.1250 (  1087 PWs)   bands (ev):

   -44.6507 -21.3154 -21.3145 -21.2604  -5.7062  -5.0003  -4.9305  -3.9865
    -3.9427  -3.8873  -3.7986  -3.6524   3.5601   6.8205   6.8499   7.1928
     7.5000   8.6876   9.4700   9.4974  10.0555  10.7431

     highest occupied level (ev):    10.8864

!    total energy              =    -333.18391940 Ry
     estimated scf accuracy    <          5.5E-10 Ry

     The total energy is the sum of the following terms:
     one-electron contribution =     -76.50277133 Ry
     hartree contribution      =      66.24156152 Ry
     xc contribution           =     -49.64883592 Ry
     ewald contribution        =    -273.27387367 Ry

     convergence has been achieved in   8 iterations

     Forces acting on atoms (cartesian axes, Ry/au):

     atom    1 type  2   force =     0.00000000    0.00000000    0.00716243
     atom    2 type  3   force =     0.00000000    0.00000000   -0.00951869
     atom    3 type  1   force =     0.00000000    0.00000000    0.00324665
     atom    4 type  1   force =     0.00000000    0.00000000    0.00324665
     atom    5 type  1   force =     0.00000000    0.00000000   -0.00413705

     Total force =     0.006180     Total SCF correction =     0.000001


     Computing stress (Cartesian axis) and pressure

          total   stress  (Ry/bohr**3)                   (kbar)     P=      -14.12
  -0.00009788   0.00000000   0.00000000          -14.40        0.00        0.00
   0.00000000  -0.00009788   0.00000000            0.00      -14.40        0.00
   0.00000000   0.00000000  -0.00009212            0.00        0.00      -13.55

     Energy error            =      6.2E-05 Ry
     Gradient error          =      4.1E-03 Ry/Bohr

     number of scf cycles    =   9
     number of bfgs steps    =   8

     energy             old  =    -333.1838578675 Ry
     energy             new  =    -333.1839193977 Ry

     CASE: energy            _new < energy            _old


     WARNING: bfgs curvature condition failed, Theta= 0.489
     new trust radius        =       0.0353661115 bohr
     new conv_thr            =       0.0000000010 Ry


ATOMIC_POSITIONS (angstrom)
Pb               0.0000000000        0.0000000000        0.0000000000    0   0   0
Ti               1.9375000000        1.9375000000        2.0150000000    0   0   0
O                0.0000000000        1.9375000000        1.9879816885
O                1.9375000000        0.0000000000        1.9879816885
O                1.9375000000        1.9375000000        0.0612904951


     Message from routine punch:
     Nothing written, as per user request (disk_io='none')
     NEW-OLD atomic charge density approx. for the potential

     total cpu time spent up to now is       47.9 secs

     Self-consistent Calculation

     iteration #  1     ecut=    30.00 Ry     beta= 0.70
     Davidson diagonalization with overlap
     ethr =  1.00E-06,  avg # of iterations =  8.0

     total cpu time spent up to now is       48.4 secs

     total energy              =    -333.18396810 Ry
     estimated scf accuracy    <       0.00030996 Ry

     iteration #  2     ecut=    30.00 Ry     beta= 0.70
     Davidson diagonalization with overlap
     ethr =  7.04E-07,  avg # of iterations =  2.2

     total cpu time spent up to now is       48.8 secs

     total energy              =    -333.18400565 Ry
     estimated scf accuracy    <       0.00001607 Ry

     iteration #  3     ecut=    30.00 Ry     beta= 0.70
     Davidson diagonalization with overlap
     ethr =  3.65E-08,  avg # of iterations =  4.2

     total cpu time spent up to now is       49.2 secs

     total energy              =    -333.18400783 Ry
     estimated scf accuracy    <       0.00000870 Ry

     iteration #  4     ecut=    30.00 Ry     beta= 0.70
     Davidson diagonalization with overlap
     ethr =  1.98E-08,  avg # of iterations =  4.7

     total cpu time spent up to now is       49.6 secs

     total energy              =    -333.18400991 Ry
     estimated scf accuracy    <       0.00000267 Ry

     iteration #  5     ecut=    30.00 Ry     beta= 0.70
     Davidson diagonalization with overlap
     ethr =  6.06E-09,  avg # of iterations =  4.2

     total cpu time spent up to now is       50.0 secs

     total energy              =    -333.18401047 Ry
     estimated scf accuracy    <       0.00000012 Ry

     iteration #  6     ecut=    30.00 Ry     beta= 0.70
     Davidson diagonalization with overlap
     ethr =  2.67E-10,  avg # of iterations =  4.8

     total cpu time spent up to now is       50.4 secs

     total energy              =    -333.18401050 Ry
     estimated scf accuracy    <       0.00000010 Ry

     iteration #  7     ecut=    30.00 Ry     beta= 0.70
     Davidson diagonalization with overlap
     ethr =  2.33E-10,  avg # of iterations =  4.2

     total cpu time spent up to now is       50.8 secs

     total energy              =    -333.18401051 Ry
     estimated scf accuracy    <          9.5E-09 Ry

     iteration #  8     ecut=    30.00 Ry     beta= 0.70
     Davidson diagonalization with overlap
     ethr =  2.15E-11,  avg # of iterations =  5.5

     total cpu time spent up to now is       51.2 secs

     total energy              =    -333.18401052 Ry
     estimated scf accuracy    <       0.00000001 Ry

     iteration #  9     ecut=    30.00 Ry     beta= 0.70
     Davidson diagonalization with overlap
     ethr =  2.15E-11,  avg # of iterations =  1.7

     total cpu time spent up to now is       51.6 secs

     total energy              =    -333.18401051 Ry
     estimated scf accuracy    <          6.0E-09 Ry

     iteration # 10     ecut=    30.00 Ry     beta= 0.70
     Davidson diagonalization with overlap
     ethr =  1.35E-11,  avg # of iterations =  3.7

     total cpu time spent up to now is       52.0 secs

     End of self-consistent calculation

          k = 0.1250 0.1250 0.1250 (  1090 PWs)   bands (ev):

   -44.6598 -21.2688 -21.2673 -21.2669  -6.3313  -5.2579  -5.2515  -3.9503
    -3.9498  -3.9359  -3.7689  -3.7655   4.6685   7.3123   7.3131   8.0967
     9.1482   9.1519   9.9053   9.9751   9.9785  10.1151

          k = 0.1250 0.1250 0.3750 (  1095 PWs)   bands (ev):

   -44.6586 -21.3251 -21.2662 -21.2652  -5.9233  -5.1389  -5.0760  -4.0105
    -3.9450  -3.9327  -3.8638  -3.7372   3.9369   6.8462   7.3469   7.8537
     8.4566   8.7545   9.3971   9.9577  10.1201  10.8828

          k = 0.1250 0.3750 0.3750 (  1087 PWs)   bands (ev):

   -44.6573 -21.3224 -21.3213 -21.2635  -5.7073  -5.0030  -4.9321  -3.9845
    -3.9411  -3.8867  -3.7969  -3.6453   3.5643   6.8140   6.8461   7.1906
     7.5009   8.6835   9.4528   9.4999  10.0618  10.7402

          k = 0.3750 0.3750 0.3750 (  1082 PWs)   bands (ev):

   -44.6561 -21.3198 -21.3195 -21.3189  -5.3009  -5.1307  -5.1254  -3.8959
    -3.8954  -3.6063  -3.5394  -3.5372   4.1745   5.9503   5.9557   6.7212
     7.0347   7.0377   8.0085  10.6923  10.6954  10.7706

          k = 0.3750-0.1250 0.1250 (  1095 PWs)   bands (ev):

   -44.6586 -21.3257 -21.2660 -21.2648  -5.9204  -5.1358  -5.0829  -4.0116
    -3.9448  -3.9326  -3.8630  -3.7356   3.9331   6.8422   7.3471   7.8589
     8.4597   8.7547   9.3969   9.9555  10.1220  10.8821

          k = 0.3750-0.3750 0.1250 (  1087 PWs)   bands (ev):

   -44.6573 -21.3226 -21.3217 -21.2630  -5.7010  -5.0065  -4.9380  -3.9844
    -3.9394  -3.8833  -3.7946  -3.6489   3.5573   6.8162   6.8440   7.1931
     7.5014   8.6877   9.4662   9.4957  10.0602  10.7368

     highest occupied level (ev):    10.8828

!    total energy              =    -333.18401052 Ry
     estimated scf accuracy    <          1.9E-10 Ry

     The total energy is the sum of the following terms:
     one-electron contribution =     -76.52280681 Ry
     hartree contribution      =      66.24975615 Ry
     xc contribution           =     -49.64849247 Ry
     ewald contribution        =    -273.26246739 Ry

     convergence has been achieved in  10 iterations

     Forces acting on atoms (cartesian axes, Ry/au):

     atom    1 type  2   force =     0.00000000    0.00000000    0.00612166
     atom    2 type  3   force =     0.00000000    0.00000000   -0.00886171
     atom    3 type  1   force =     0.00000000    0.00000000    0.00411651
     atom    4 type  1   force =     0.00000000    0.00000000    0.00411651
     atom    5 type  1   force =     0.00000000    0.00000000   -0.00549298

     Total force =     0.008004     Total SCF correction =     0.000004


     Computing stress (Cartesian axis) and pressure

          total   stress  (Ry/bohr**3)                   (kbar)     P=      -14.38
  -0.00009610   0.00000000   0.00000000          -14.14        0.00        0.00
   0.00000000  -0.00009610   0.00000000            0.00      -14.14        0.00
   0.00000000   0.00000000  -0.00010108            0.00        0.00      -14.87

     Energy error            =      9.1E-05 Ry
     Gradient error          =      5.5E-03 Ry/Bohr

     number of scf cycles    =  10
     number of bfgs steps    =   9

     energy             old  =    -333.1839193977 Ry
     energy             new  =    -333.1840105164 Ry

     CASE: energy            _new < energy            _old


     WARNING: bfgs curvature condition failed, Theta= 0.592
     uphill step: resetting bfgs history

     new trust radius        =       0.0054929781 bohr
     new conv_thr            =       0.0000000010 Ry


ATOMIC_POSITIONS (angstrom)
Pb               0.0000000000        0.0000000000        0.0000000000    0   0   0
Ti               1.9375000000        1.9375000000        2.0150000000    0   0   0
O                0.0000000000        1.9375000000        1.9901600536
O                1.9375000000        0.0000000000        1.9901600536
O                1.9375000000        1.9375000000        0.0583837363


     Message from routine punch:
     Nothing written, as per user request (disk_io='none')
     NEW-OLD atomic charge density approx. for the potential

     total cpu time spent up to now is       53.5 secs

     Self-consistent Calculation

     iteration #  1     ecut=    30.00 Ry     beta= 0.70
     Davidson diagonalization with overlap
     ethr =  1.00E-06,  avg # of iterations =  3.0

     Threshold (ethr) on eigenvalues was too large:
     Diagonalizing with lowered threshold

     Davidson diagonalization with overlap
     ethr =  1.44E-08,  avg # of iterations =  4.5

     total cpu time spent up to now is       54.1 secs

     total energy              =    -333.18406279 Ry
     estimated scf accuracy    <       0.00000882 Ry

     iteration #  2     ecut=    30.00 Ry     beta= 0.70
     Davidson diagonalization with overlap
     ethr =  2.00E-08,  avg # of iterations =  2.2

     total cpu time spent up to now is       54.5 secs

     total energy              =    -333.18406501 Ry
     estimated scf accuracy    <       0.00000094 Ry

     iteration #  3     ecut=    30.00 Ry     beta= 0.70
     Davidson diagonalization with overlap
     ethr =  2.14E-09,  avg # of iterations =  2.0

     total cpu time spent up to now is       54.9 secs

     total energy              =    -333.18406519 Ry
     estimated scf accuracy    <       0.00000002 Ry

     iteration #  4     ecut=    30.00 Ry     beta= 0.70
     Davidson diagonalization with overlap
     ethr =  4.41E-11,  avg # of iterations =  6.0

     total cpu time spent up to now is       55.4 secs

     total energy              =    -333.18406521 Ry
     estimated scf accuracy    <          9.5E-09 Ry

     iteration #  5     ecut=    30.00 Ry     beta= 0.70
     Davidson diagonalization with overlap
     ethr =  2.16E-11,  avg # of iterations =  4.5

     total cpu time spent up to now is       55.8 secs

     total energy              =    -333.18406521 Ry
     estimated scf accuracy    <          2.1E-09 Ry

     iteration #  6     ecut=    30.00 Ry     beta= 0.70
     Davidson diagonalization with overlap
     ethr =  4.77E-12,  avg # of iterations =  4.5

     total cpu time spent up to now is       56.2 secs

     End of self-consistent calculation

          k = 0.1250 0.1250 0.1250 (  1090 PWs)   bands (ev):

   -44.6593 -21.2684 -21.2668 -21.2667  -6.3316  -5.2583  -5.2519  -3.9502
    -3.9496  -3.9357  -3.7688  -3.7651   4.6687   7.3120   7.3137   8.0963
     9.1478   9.1514   9.9052   9.9744   9.9781  10.1145

          k = 0.1250 0.1250 0.3750 (  1095 PWs)   bands (ev):

   -44.6581 -21.3250 -21.2657 -21.2647  -5.9236  -5.1394  -5.0764  -4.0103
    -3.9448  -3.9325  -3.8635  -3.7371   3.9372   6.8462   7.3466   7.8540
     8.4562   8.7536   9.3966   9.9576  10.1197  10.8827

          k = 0.1250 0.3750 0.3750 (  1087 PWs)   bands (ev):

   -44.6568 -21.3220 -21.3210 -21.2631  -5.7076  -5.0035  -4.9324  -3.9844
    -3.9409  -3.8864  -3.7967  -3.6450   3.5642   6.8139   6.8461   7.1901
     7.5009   8.6833   9.4535   9.4983  10.0618  10.7397

          k = 0.3750 0.3750 0.3750 (  1082 PWs)   bands (ev):

   -44.6555 -21.3194 -21.3190 -21.3187  -5.3011  -5.1309  -5.1258  -3.8958
    -3.8952  -3.6061  -3.5392  -3.5368   4.1740   5.9500   5.9553   6.7212
     7.0342   7.0372   8.0089  10.6918  10.6948  10.7702

          k = 0.3750-0.1250 0.1250 (  1095 PWs)   bands (ev):

   -44.6581 -21.3252 -21.2656 -21.2646  -5.9207  -5.1363  -5.0832  -4.0114
    -3.9446  -3.9324  -3.8628  -3.7353   3.9329   6.8420   7.3468   7.8589
     8.4598   8.7545   9.3961   9.9549  10.1216  10.8816

          k = 0.3750-0.3750 0.1250 (  1087 PWs)   bands (ev):

   -44.6568 -21.3221 -21.3212 -21.2628  -5.7014  -5.0069  -4.9385  -3.9843
    -3.9391  -3.8828  -3.7942  -3.6488   3.5569   6.8161   6.8436   7.1923
     7.5003   8.6877   9.4660   9.4959  10.0603  10.7364

     highest occupied level (ev):    10.8827

!    total energy              =    -333.18406521 Ry
     estimated scf accuracy    <          3.2E-10 Ry

     The total energy is the sum of the following terms:
     one-electron contribution =     -76.53760264 Ry
     hartree contribution      =      66.25726943 Ry
     xc contribution           =     -49.64881667 Ry
     ewald contribution        =    -273.25491534 Ry

     convergence has been achieved in   6 iterations

     Forces acting on atoms (cartesian axes, Ry/au):

     atom    1 type  2   force =     0.00000000    0.00000000    0.00582120
     atom    2 type  3   force =     0.00000000    0.00000000   -0.00896704
     atom    3 type  1   force =     0.00000000    0.00000000    0.00325812
     atom    4 type  1   force =     0.00000000    0.00000000    0.00325812
     atom    5 type  1   force =     0.00000000    0.00000000   -0.00337039

     Total force =     0.005709     Total SCF correction =     0.000034


     Computing stress (Cartesian axis) and pressure

          total   stress  (Ry/bohr**3)                   (kbar)     P=      -14.21
  -0.00009540   0.00000000   0.00000000          -14.03        0.00        0.00
   0.00000000  -0.00009540   0.00000000            0.00      -14.03        0.00
   0.00000000   0.00000000  -0.00009893            0.00        0.00      -14.55

     Energy error            =      5.5E-05 Ry
     Gradient error          =      3.4E-03 Ry/Bohr

     number of scf cycles    =  11
     number of bfgs steps    =  10

     energy             old  =    -333.1840105164 Ry
     energy             new  =    -333.1840652101 Ry

[...]

          k = 0.1250 0.3750 0.3750 (  1087 PWs)   bands (ev):

   -44.6473 -21.3398 -21.3095 -21.2519  -5.7892  -5.1175  -4.9576  -3.9148
    -3.8715  -3.8148  -3.7121  -3.5334   3.6068   6.6081   6.9554   7.1454
     7.4447   8.6485   9.4096   9.4450  10.1394  10.6748

          k = 0.3750 0.3750 0.3750 (  1082 PWs)   bands (ev):

   -44.6460 -21.3373 -21.3071 -21.3069  -5.3870  -5.2335  -5.1375  -3.8266
    -3.8244  -3.5606  -3.4621  -3.4405   4.0993   5.9118   5.9483   6.6267
     7.1196   7.1362   8.1937  10.6035  10.6242  10.7101

          k = 0.3750-0.1250 0.1250 (  1095 PWs)   bands (ev):

   -44.6486 -21.3133 -21.2831 -21.2540  -5.9933  -5.2134  -5.1625  -3.9453
    -3.8784  -3.8590  -3.7446  -3.6376   3.9404   6.8244   7.3201   7.8170
     8.3774   8.7996   9.3269   9.8608   9.9806  10.9177

          k = 0.3750-0.3750 0.1250 (  1087 PWs)   bands (ev):

   -44.6473 -21.3102 -21.3092 -21.2807  -5.7272  -5.1299  -5.0885  -3.9156
    -3.8524  -3.7584  -3.6610  -3.5886   3.4944   6.7635   6.8386   7.2030
     7.5619   8.7156   9.4814   9.4948  10.1116  10.6425

     highest occupied level (ev):    10.9560

!    total energy              =    -333.18563728 Ry
     estimated scf accuracy    <          6.3E-10 Ry

     The total energy is the sum of the following terms:
     one-electron contribution =     -77.55076506 Ry
     hartree contribution      =      66.77204231 Ry
     xc contribution           =     -49.67254680 Ry
     ewald contribution        =    -272.73436772 Ry

     convergence has been achieved in  10 iterations

     Forces acting on atoms (cartesian axes, Ry/au):

     atom    1 type  2   force =     0.00000000    0.00000000   -0.00343520
     atom    2 type  3   force =     0.00000000    0.00000000   -0.00132588
     atom    3 type  1   force =     0.00000000    0.00000000   -0.00398352
     atom    4 type  1   force =     0.00000000    0.00000000   -0.00398352
     atom    5 type  1   force =     0.00000000    0.00000000    0.01272812

     Total force =     0.013919     Total SCF correction =     0.000010


     Computing stress (Cartesian axis) and pressure

          total   stress  (Ry/bohr**3)                   (kbar)     P=       -3.11
  -0.00006926   0.00000000   0.00000000          -10.19        0.00        0.00
   0.00000000  -0.00006926   0.00000000            0.00      -10.19        0.00
   0.00000000   0.00000000   0.00007514            0.00        0.00       11.05

     Energy error            =      2.1E-04 Ry
     Gradient error          =      1.3E-02 Ry/Bohr

     number of scf cycles    =  34
     number of bfgs steps    =  33

     energy             old  =    -333.1854309410 Ry
     energy             new  =    -333.1856372809 Ry

     CASE: energy            _new < energy            _old

     new trust radius        =       0.0280543369 bohr
     new conv_thr            =       0.0000000021 Ry


ATOMIC_POSITIONS (angstrom)
Pb               0.0000000000        0.0000000000        0.0000000000    0   0   0
Ti               1.9375000000        1.9375000000        2.0150000000    0   0   0
O                0.0000000000        1.9375000000        2.1917718011
O                1.9375000000        0.0000000000        2.1917718011
O                1.9375000000        1.9375000000        0.1952674438


     Message from routine punch:
     Nothing written, as per user request (disk_io='none')
     NEW-OLD atomic charge density approx. for the potential

     total cpu time spent up to now is      177.3 secs

     Self-consistent Calculation

     iteration #  1     ecut=    30.00 Ry     beta= 0.70
     Davidson diagonalization with overlap
     ethr =  1.00E-06,  avg # of iterations =  5.7

     total cpu time spent up to now is      177.8 secs

     total energy              =    -333.18580400 Ry
     estimated scf accuracy    <       0.00014702 Ry

     iteration #  2     ecut=    30.00 Ry     beta= 0.70
     Davidson diagonalization with overlap
     ethr =  3.34E-07,  avg # of iterations =  4.5

     total cpu time spent up to now is      178.2 secs

     total energy              =    -333.18581177 Ry
     estimated scf accuracy    <       0.00011913 Ry

     iteration #  3     ecut=    30.00 Ry     beta= 0.70
     Davidson diagonalization with overlap
     ethr =  2.71E-07,  avg # of iterations =  4.3

     total cpu time spent up to now is      178.7 secs

     total energy              =    -333.18584020 Ry
     estimated scf accuracy    <       0.00003046 Ry

     iteration #  4     ecut=    30.00 Ry     beta= 0.70
     Davidson diagonalization with overlap
     ethr =  6.92E-08,  avg # of iterations =  3.7

     total cpu time spent up to now is      179.1 secs

     total energy              =    -333.18584439 Ry
     estimated scf accuracy    <       0.00000134 Ry

     iteration #  5     ecut=    30.00 Ry     beta= 0.70
     Davidson diagonalization with overlap
     ethr =  3.05E-09,  avg # of iterations =  5.8

     total cpu time spent up to now is      179.6 secs

     total energy              =    -333.18584566 Ry
     estimated scf accuracy    <       0.00000157 Ry

     iteration #  6     ecut=    30.00 Ry     beta= 0.70
     Davidson diagonalization with overlap
     ethr =  3.05E-09,  avg # of iterations =  2.3

     total cpu time spent up to now is      180.0 secs

     total energy              =    -333.18584549 Ry
     estimated scf accuracy    <       0.00000074 Ry

     iteration #  7     ecut=    30.00 Ry     beta= 0.70
     Davidson diagonalization with overlap
     ethr =  1.68E-09,  avg # of iterations =  4.2

     total cpu time spent up to now is      180.4 secs

     total energy              =    -333.18584570 Ry
     estimated scf accuracy    <       0.00000003 Ry

     iteration #  8     ecut=    30.00 Ry     beta= 0.70
     Davidson diagonalization with overlap
     ethr =  7.72E-11,  avg # of iterations =  3.7

     total cpu time spent up to now is      180.9 secs

     total energy              =    -333.18584570 Ry
     estimated scf accuracy    <       0.00000002 Ry

     iteration #  9     ecut=    30.00 Ry     beta= 0.70
     Davidson diagonalization with overlap
     ethr =  4.41E-11,  avg # of iterations =  4.5

     total cpu time spent up to now is      181.4 secs

     End of self-consistent calculation

          k = 0.1250 0.1250 0.1250 (  1090 PWs)   bands (ev):

   -44.6306 -21.2794 -21.2374 -21.2364  -6.4093  -5.3397  -5.2548  -3.8893
    -3.8885  -3.8666  -3.7193  -3.6400   4.6847   7.2066   7.3084   8.0612
     9.0355   9.0776   9.6478   9.7744   9.9645  10.2493

          k = 0.1250 0.1250 0.3750 (  1095 PWs)   bands (ev):

   -44.6294 -21.3376 -21.2352 -21.2342  -6.0197  -5.2382  -5.0680  -3.9348
    -3.8761  -3.8647  -3.7352  -3.6840   3.9486   6.8340   7.1226   7.7267
     8.5608   8.6590   9.3618   9.8414  10.0509  10.9583

          k = 0.1250 0.3750 0.3750 (  1087 PWs)   bands (ev):

   -44.6281 -21.3339 -21.2903 -21.2326  -5.7869  -5.1180  -4.9656  -3.9163
    -3.8730  -3.8168  -3.7129  -3.5318   3.6043   6.5929   6.9589   7.1515
     7.4432   8.6520   9.4056   9.4299  10.1364  10.6653

          k = 0.3750 0.3750 0.3750 (  1082 PWs)   bands (ev):

   -44.6268 -21.3313 -21.2879 -21.2878  -5.3866  -5.2333  -5.1434  -3.8286
    -3.8252  -3.5650  -3.4634  -3.4390   4.0955   5.9090   5.9431   6.6255
     7.1239   7.1459   8.1956  10.6037  10.6088  10.6986

          k = 0.3750-0.1250 0.1250 (  1095 PWs)   bands (ev):

   -44.6294 -21.2942 -21.2769 -21.2348  -5.9940  -5.2154  -5.1664  -3.9464
    -3.8797  -3.8613  -3.7438  -3.6374   3.9391   6.8271   7.3167   7.8206
     8.3726   8.8003   9.3049   9.8524   9.9645  10.9136

          k = 0.3750-0.3750 0.1250 (  1087 PWs)   bands (ev):

   -44.6281 -21.2912 -21.2901 -21.2745  -5.7322  -5.1315  -5.0886  -3.9162
    -3.8537  -3.7580  -3.6597  -3.5927   3.4927   6.7654   6.8456   7.1950
     7.5555   8.7153   9.4731   9.4901  10.1086  10.6427

     highest occupied level (ev):    10.9583

!    total energy              =    -333.18584570 Ry
     estimated scf accuracy    <          1.1E-09 Ry

     The total energy is the sum of the following terms:
     one-electron contribution =     -77.65291606 Ry
     hartree contribution      =      66.82704116 Ry
     xc contribution           =     -49.67747002 Ry
     ewald contribution        =    -272.68250077 Ry

     convergence has been achieved in   9 iterations

     Forces acting on atoms (cartesian axes, Ry/au):

     atom    1 type  2   force =     0.00000000    0.00000000   -0.00342134
     atom    2 type  3   force =     0.00000000    0.00000000    0.00237163
     atom    3 type  1   force =     0.00000000    0.00000000   -0.00185128
     atom    4 type  1   force =     0.00000000    0.00000000   -0.00185128
     atom    5 type  1   force =     0.00000000    0.00000000    0.00475227

     Total force =     0.005426     Total SCF correction =     0.000010


     Computing stress (Cartesian axis) and pressure

          total   stress  (Ry/bohr**3)                   (kbar)     P=       -0.23
  -0.00006351   0.00000000   0.00000000           -9.34        0.00        0.00
   0.00000000  -0.00006351   0.00000000            0.00       -9.34        0.00
   0.00000000   0.00000000   0.00012230            0.00        0.00       17.99

     Energy error            =      2.1E-04 Ry
     Gradient error          =      4.8E-03 Ry/Bohr

     number of scf cycles    =  35
     number of bfgs steps    =  34

     energy             old  =    -333.1856372809 Ry
     energy             new  =    -333.1858457022 Ry

     CASE: energy            _new < energy            _old

     new trust radius        =       0.0097360630 bohr
     new conv_thr            =       0.0000000021 Ry


ATOMIC_POSITIONS (angstrom)
Pb               0.0000000000        0.0000000000        0.0000000000    0   0   0
Ti               1.9375000000        1.9375000000        2.0150000000    0   0   0
O                0.0000000000        1.9375000000        2.1876608114
O                1.9375000000        0.0000000000        2.1876608114
O                1.9375000000        1.9375000000        0.2004195465


     Message from routine punch:
     Nothing written, as per user request (disk_io='none')
     NEW-OLD atomic charge density approx. for the potential

     total cpu time spent up to now is      183.2 secs

     Self-consistent Calculation

     iteration #  1     ecut=    30.00 Ry     beta= 0.70
     Davidson diagonalization with overlap
     ethr =  1.00E-06,  avg # of iterations =  3.5

     Threshold (ethr) on eigenvalues was too large:
     Diagonalizing with lowered threshold

     Davidson diagonalization with overlap
     ethr =  6.77E-08,  avg # of iterations =  3.3

     total cpu time spent up to now is      184.1 secs

     total energy              =    -333.18587422 Ry
     estimated scf accuracy    <       0.00003588 Ry

     iteration #  2     ecut=    30.00 Ry     beta= 0.70
     Davidson diagonalization with overlap
     ethr =  8.16E-08,  avg # of iterations =  5.0

     total cpu time spent up to now is      184.5 secs

     total energy              =    -333.18587738 Ry
     estimated scf accuracy    <       0.00003117 Ry

     iteration #  3     ecut=    30.00 Ry     beta= 0.70
     Davidson diagonalization with overlap
     ethr =  7.08E-08,  avg # of iterations =  4.5

     total cpu time spent up to now is      185.0 secs

     total energy              =    -333.18588509 Ry
     estimated scf accuracy    <       0.00000778 Ry

     iteration #  4     ecut=    30.00 Ry     beta= 0.70
     Davidson diagonalization with overlap
     ethr =  1.77E-08,  avg # of iterations =  3.2

     total cpu time spent up to now is      185.4 secs

     total energy              =    -333.18588604 Ry
     estimated scf accuracy    <       0.00000053 Ry

     iteration #  5     ecut=    30.00 Ry     beta= 0.70
     Davidson diagonalization with overlap
     ethr =  1.20E-09,  avg # of iterations =  5.3

     total cpu time spent up to now is      185.9 secs

     total energy              =    -333.18588648 Ry
     estimated scf accuracy    <       0.00000064 Ry

     iteration #  6     ecut=    30.00 Ry     beta= 0.70
     Davidson diagonalization with overlap
     ethr =  1.20E-09,  avg # of iterations =  2.0

     total cpu time spent up to now is      186.3 secs

     total energy              =    -333.18588641 Ry
     estimated scf accuracy    <       0.00000034 Ry

     iteration #  7     ecut=    30.00 Ry     beta= 0.70
     Davidson diagonalization with overlap
     ethr =  7.63E-10,  avg # of iterations =  4.2

     total cpu time spent up to now is      186.7 secs

     total energy              =    -333.18588647 Ry
     estimated scf accuracy    <       0.00000001 Ry

     iteration #  8     ecut=    30.00 Ry     beta= 0.70
     Davidson diagonalization with overlap
     ethr =  3.04E-11,  avg # of iterations =  5.2

     total cpu time spent up to now is      187.2 secs

     total energy              =    -333.18588648 Ry
     estimated scf accuracy    <          7.1E-09 Ry

     iteration #  9     ecut=    30.00 Ry     beta= 0.70
     Davidson diagonalization with overlap
     ethr =  1.62E-11,  avg # of iterations =  2.0

     total cpu time spent up to now is      187.6 secs

     total energy              =    -333.18588648 Ry
     estimated scf accuracy    <          3.3E-09 Ry

     iteration # 10     ecut=    30.00 Ry     beta= 0.70
     Davidson diagonalization with overlap
     ethr =  7.44E-12,  avg # of iterations =  3.3

     total cpu time spent up to now is      188.1 secs

     End of self-consistent calculation

          k = 0.1250 0.1250 0.1250 (  1090 PWs)   bands (ev):

   -44.6214 -21.2757 -21.2283 -21.2273  -6.4052  -5.3358  -5.2579  -3.8932
    -3.8922  -3.8710  -3.7233  -3.6456   4.6820   7.2128   7.3096   8.0682
     9.0290   9.0764   9.6410   9.7764   9.9667  10.2429

          k = 0.1250 0.1250 0.3750 (  1095 PWs)   bands (ev):

   -44.6202 -21.3340 -21.2261 -21.2252  -6.0138  -5.2337  -5.0724  -3.9390
    -3.8801  -3.8690  -3.7408  -3.6884   3.9432   6.8355   7.1300   7.7362
     8.5521   8.6541   9.3590   9.8435  10.0552  10.9553

          k = 0.1250 0.3750 0.3750 (  1087 PWs)   bands (ev):

   -44.6189 -21.3303 -21.2814 -21.2235  -5.7823  -5.1127  -4.9685  -3.9204
    -3.8772  -3.8213  -3.7175  -3.5363   3.6009   6.5922   6.9580   7.1556
     7.4453   8.6543   9.4002   9.4292  10.1310  10.6637

          k = 0.3750 0.3750 0.3750 (  1082 PWs)   bands (ev):

   -44.6176 -21.3277 -21.2790 -21.2788  -5.3819  -5.2285  -5.1457  -3.8330
    -3.8290  -3.5695  -3.4679  -3.4429   4.0969   5.9085   5.9404   6.6299
     7.1200   7.1435   8.1879  10.6048  10.6074  10.6963

          k = 0.3750-0.1250 0.1250 (  1095 PWs)   bands (ev):

   -44.6202 -21.2853 -21.2732 -21.2257  -5.9906  -5.2128  -5.1654  -3.9503
    -3.8835  -3.8660  -3.7487  -3.6423   3.9381   6.8282   7.3155   7.8248
     8.3734   8.7972   9.2970   9.8533   9.9630  10.9100

          k = 0.3750-0.3750 0.1250 (  1087 PWs)   bands (ev):

   -44.6189 -21.2824 -21.2811 -21.2708  -5.7329  -5.1271  -5.0823  -3.9199
    -3.8582  -3.7633  -3.6652  -3.5980   3.4946   6.7681   6.8482   7.1896
     7.5481   8.7135   9.4692   9.4852  10.1048  10.6469

     highest occupied level (ev):    10.9553

!    total energy              =    -333.18588648 Ry
     estimated scf accuracy    <          5.7E-10 Ry

     The total energy is the sum of the following terms:
     one-electron contribution =     -77.67118054 Ry
     hartree contribution      =      66.83785245 Ry
     xc contribution           =     -49.67916434 Ry
     ewald contribution        =    -272.67339406 Ry

     convergence has been achieved in  10 iterations

     Forces acting on atoms (cartesian axes, Ry/au):

     atom    1 type  2   force =     0.00000000    0.00000000   -0.00328586
     atom    2 type  3   force =     0.00000000    0.00000000    0.00378473
     atom    3 type  1   force =     0.00000000    0.00000000   -0.00023427
     atom    4 type  1   force =     0.00000000    0.00000000   -0.00023427
     atom    5 type  1   force =     0.00000000    0.00000000   -0.00003032

     Total force =     0.000333     Total SCF correction =     0.000009


     Computing stress (Cartesian axis) and pressure

          total   stress  (Ry/bohr**3)                   (kbar)     P=        1.05
  -0.00005941   0.00000000   0.00000000           -8.74        0.00        0.00
   0.00000000  -0.00005941   0.00000000            0.00       -8.74        0.00
   0.00000000   0.00000000   0.00014022            0.00        0.00       20.63

     Energy error            =      4.1E-05 Ry
     Gradient error          =      2.3E-04 Ry/Bohr

     bfgs converged in  36 scf cycles and  35 bfgs steps
     (criteria: energy <  1.0E-04 Ry, force <  1.0E-03 Ry/Bohr)

     End of BFGS Geometry Optimization

     Final energy             =    -333.1858864803 Ry

     File /home/bond/Work/Lab4/Problem2/PbTiO3_a_3.875_ecut_30_nk_4_displ_0.020000000000000004/pwscf.bfgs deleted, as requested
Begin final coordinates

ATOMIC_POSITIONS (angstrom)
Pb               0.0000000000        0.0000000000        0.0000000000    0   0   0
Ti               1.9375000000        1.9375000000        2.0150000000    0   0   0
O                0.0000000000        1.9375000000        2.1876608114
O                1.9375000000        0.0000000000        2.1876608114
O                1.9375000000        1.9375000000        0.2004195465
End final coordinates


     Message from routine punch:
     Nothing written, as per user request (disk_io='none')

     init_run     :      1.30s CPU      1.43s WALL (       1 calls)
     electrons    :    114.46s CPU    132.50s WALL (      36 calls)
     update_pot   :      0.25s CPU      0.26s WALL (      35 calls)
     forces       :      4.92s CPU      5.79s WALL (      36 calls)
     stress       :     42.31s CPU     44.96s WALL (      36 calls)

     Called by init_run:
     wfcinit      :      0.09s CPU      0.09s WALL (       1 calls)
     potinit      :      0.10s CPU      0.10s WALL (       1 calls)
     hinit0       :      0.91s CPU      1.01s WALL (       1 calls)

     Called by electrons:
     c_bands      :     50.94s CPU     54.74s WALL (     305 calls)
     sum_band     :     36.93s CPU     44.58s WALL (     305 calls)
     v_of_rho     :      0.96s CPU      1.00s WALL (     318 calls)
     newd         :     28.13s CPU     35.41s WALL (     318 calls)
     mix_rho      :      0.48s CPU      0.52s WALL (     305 calls)

     Called by c_bands:
     init_us_2    :      1.55s CPU      1.66s WALL (    4098 calls)
     cegterg      :     47.69s CPU     51.32s WALL (    1830 calls)

     Called by *egterg:
     cdiaghg      :      6.37s CPU      6.76s WALL (    9160 calls)
     h_psi        :     32.34s CPU     35.02s WALL (    9514 calls)
     s_psi        :      1.40s CPU      1.53s WALL (    9514 calls)
     g_psi        :      0.23s CPU      0.24s WALL (    7678 calls)

     Called by h_psi:
     h_psi:calbec :      2.50s CPU      2.75s WALL (    9514 calls)
     vloc_psi     :     27.99s CPU     30.25s WALL (    9514 calls)
     add_vuspsi   :      1.57s CPU      1.72s WALL (    9514 calls)

     General routines
     calbec       :      4.35s CPU      4.71s WALL (   15016 calls)
     fft          :      1.58s CPU      1.65s WALL (    2074 calls)
     ffts         :      0.14s CPU      0.14s WALL (     623 calls)
     fftw         :     25.55s CPU     27.68s WALL (  282222 calls)
     interpolate  :      0.31s CPU      0.32s WALL (     318 calls)

     Parallel routines

     PWSCF        :   2m47.01s CPU   3m 9.55s WALL


   This run was terminated on:  12:43:52  21Oct2025            

=------------------------------------------------------------------------------=
   JOB DONE.
=------------------------------------------------------------------------------=
