LAMMPS (22 Jul 2025 - Update 1)
Reading data file ...
  orthogonal box = (0 0 0) to (8.7451919 8.7451919 28.490092)
  1 by 1 by 1 MPI processor grid
  reading atoms ...
  81 atoms
  read_data CPU = 0.002 seconds
WARNING: No fixes with time integration, atoms won't move
For more information see https://docs.lammps.org/err0028 (../verlet.cpp:60)
Generated 0 of 0 mixed pair_coeff terms from geometric mixing rule
Neighbor list info ...
  update: every = 1 steps, delay = 0 steps, check = yes
  max neighbors/atom: 2000, page size: 100000
  master list distance cutoff = 6.5
  ghost atom cutoff = 6.5
  binsize = 3.25, bins = 3 3 9
  1 neighbor lists, perpetual/occasional/extra = 1 0 0
  (1) pair lj/cut, perpetual
      attributes: half, newton on
      pair build: half/bin/atomonly/newton
      stencil: half/bin/3d
      bin: standard
Setting up Verlet run ...
  Unit style    : metal
  Current step  : 0
  Time step     : 0.001
Per MPI rank memory allocation (min/avg/max) = 3.064 | 3.064 | 3.064 Mbytes
   Step         PotEng           Lx             Ly             Lz           Press           Pxx            Pyy            Pzz      
         0  -197.59535      8.7451919      8.7451919      28.490092      0.14353873    -1780.8124     -1780.8124      3562.0555    
Loop time of 2.477e-06 on 1 procs for 0 steps with 81 atoms

40.4% CPU use with 1 MPI tasks x no OpenMP threads

MPI task timing breakdown:
Section |  min time  |  avg time  |  max time  |%varavg| %total
---------------------------------------------------------------
Pair    | 0          | 0          | 0          |   0.0 |  0.00
Neigh   | 0          | 0          | 0          |   0.0 |  0.00
Comm    | 0          | 0          | 0          |   0.0 |  0.00
Output  | 0          | 0          | 0          |   0.0 |  0.00
Modify  | 0          | 0          | 0          |   0.0 |  0.00
Other   |            | 2.477e-06  |            |       |100.00

Nlocal:             81 ave          81 max          81 min
Histogram: 1 0 0 0 0 0 0 0 0 0
Nghost:            435 ave         435 max         435 min
Histogram: 1 0 0 0 0 0 0 0 0 0
Neighs:           1917 ave        1917 max        1917 min
Histogram: 1 0 0 0 0 0 0 0 0 0

Total # of neighbors = 1917
Ave neighs/atom = 23.666667
Neighbor list builds = 0
Dangerous builds = 0
Total energy (eV) = -197.595345283732
Number of atoms = 81
Lattice constant (Angstoms) = 8.74519193592377
Total wall time: 0:00:00
