
     Program PWSCF v.7.4.1 starts on  8Oct2025 at 21:44:46 

     This program is part of the open-source Quantum ESPRESSO suite
     for quantum simulation of materials; please cite
         "P. Giannozzi et al., J. Phys.:Condens. Matter 21 395502 (2009);
         "P. Giannozzi et al., J. Phys.:Condens. Matter 29 465901 (2017);
         "P. Giannozzi et al., J. Chem. Phys. 152 154105 (2020);
          URL http://www.quantum-espresso.org", 
     in publications or presentations arising from this work. More details at
     http://www.quantum-espresso.org/quote

     Parallel version (MPI), running on     1 processors

     MPI processes distributed on     1 nodes
     851 MiB available memory on the printing compute node when the environment starts

     Waiting for input...
     Reading input from standard input
Warning: card &CELL ignored
Warning: card / ignored

     Current dimensions of program PWSCF are:
     Max number of different atomic species (ntypx) = 10
     Max number of k-points (npk) =  40000
     Max angular momentum in pseudopotentials (lmaxx) =  4
     Message from routine find_sym:
     Not a group! Trying with lower acceptance parameter...
     Message from routine find_sym:
     Still not a group! symmetry disabled

     Subspace diagonalization in iterative solution of the eigenvalue problem:
     a serial algorithm will be used


     G-vector sticks info
     --------------------
     sticks:   dense  smooth     PW     G-vecs:    dense   smooth      PW
     Sum         559     559    169                 8657     8657    1471

     Using Slab Decomposition



     bravais-lattice index     =            0
     lattice parameter (alat)  =       7.6076  a.u.
     unit-cell volume          =     311.3411 (a.u.)^3
     number of atoms/cell      =            2
     number of atomic types    =            1
     number of electrons       =        28.00
     number of Kohn-Sham states=           14
     kinetic-energy cutoff     =      35.0000  Ry
     charge density cutoff     =     140.0000  Ry
     scf convergence threshold =      1.0E-07
     mixing beta               =       0.5000
     number of iterations used =            8  plain     mixing
     Exchange-correlation=  SLA  PZ   NOGX NOGC
                           (   1   1   0   0   0   0   0)

     celldm(1)=   7.607649  celldm(2)=   0.000000  celldm(3)=   0.000000
     celldm(4)=   0.000000  celldm(5)=   0.000000  celldm(6)=   0.000000

     crystal axes: (cart. coord. in units of alat)
               a(1) = (   0.000000   0.707107   0.707107 )  
               a(2) = (   0.707107   0.000000   0.707107 )  
               a(3) = (   0.707107   0.707107   0.000000 )  

     reciprocal axes: (cart. coord. in units 2 pi/alat)
               b(1) = ( -0.707107  0.707107  0.707107 )  
               b(2) = (  0.707107 -0.707107  0.707107 )  
               b(3) = (  0.707107  0.707107 -0.707107 )  


     PseudoPot. # 1 for Ge read from file:
     /home/bond/Software/QE/qe-7.4.1/pseudo/ge_lda_v1.4.uspp.F.UPF
     MD5 check sum: bf9d52b59cc8a669818bb2b52e0c2ba0
     Pseudo is Ultrasoft + core correction, Zval = 14.0
     Generated by new atomic code, or converted to UPF format
     Using radial grid of  873 points,  6 beta functions with: 
                l(1) =   0
                l(2) =   0
                l(3) =   1
                l(4) =   1
                l(5) =   2
                l(6) =   2
     Q(r) pseudized with  8 coefficients,  rinner =    1.400   1.400   1.400
                                                       1.400   1.400

     atomic species   valence    mass     pseudopotential
     Ge               14.00    72.63000     Ge( 1.00)

     No symmetry found



   Cartesian axes

     site n.     atom                  positions (alat units)
         1        Ge     tau(   1) = (   0.0000000   0.0000000   0.0000000  )
         2        Ge     tau(   2) = (   0.3535526   0.3535526   0.3535526  )

     number of k points=   504

     Number of k-points >= 100: set verbosity='high' to print them.

     Dense  grid:     8657 G-vectors     FFT dimensions: (  32,  32,  32)

     Estimated max dynamical RAM per process >     151.43 MB

     Check: negative core charge=   -0.000018

     Initial potential from superposition of free atoms

     starting charge      27.9986, renormalised to      28.0000
     Starting wfcs are   18 randomized atomic wfcs

     total cpu time spent up to now is        5.0 secs

     Self-consistent Calculation

     iteration #  1     ecut=    35.00 Ry     beta= 0.50
     Davidson diagonalization with overlap
     ethr =  1.00E-02,  avg # of iterations =  1.7

     Threshold (ethr) on eigenvalues was too large:
     Diagonalizing with lowered threshold

     Davidson diagonalization with overlap
     ethr =  1.12E-04,  avg # of iterations =  2.0

     total cpu time spent up to now is       22.6 secs

     total energy              =    -426.16902167 Ry
     estimated scf accuracy    <       0.03342647 Ry

     iteration #  2     ecut=    35.00 Ry     beta= 0.50
     Davidson diagonalization with overlap
     ethr =  1.19E-04,  avg # of iterations =  1.0

     total cpu time spent up to now is       30.9 secs

     total energy              =    -426.16775056 Ry
     estimated scf accuracy    <       0.00592958 Ry

     iteration #  3     ecut=    35.00 Ry     beta= 0.50
     Davidson diagonalization with overlap
     ethr =  2.12E-05,  avg # of iterations =  2.0

     total cpu time spent up to now is       40.2 secs

     total energy              =    -426.16818897 Ry
     estimated scf accuracy    <       0.00006576 Ry

     iteration #  4     ecut=    35.00 Ry     beta= 0.50
     Davidson diagonalization with overlap
     ethr =  2.35E-07,  avg # of iterations =  3.7

     total cpu time spent up to now is       52.4 secs

     total energy              =    -426.16821170 Ry
     estimated scf accuracy    <       0.00000327 Ry

     iteration #  5     ecut=    35.00 Ry     beta= 0.50
     Davidson diagonalization with overlap
     ethr =  1.17E-08,  avg # of iterations =  3.2

     total cpu time spent up to now is       64.4 secs

     End of self-consistent calculation

     Number of k-points >= 100: set verbosity='high' to print the bands.

     highest occupied level (ev):     7.9068

!    total energy              =    -426.16821256 Ry
     estimated scf accuracy    <       0.00000006 Ry

     The total energy is the sum of the following terms:
     one-electron contribution =    -281.15832961 Ry
     hartree contribution      =     165.77406811 Ry
     xc contribution           =    -114.51514429 Ry
     ewald contribution        =    -196.26880677 Ry

     convergence has been achieved in   5 iterations

     Forces acting on atoms (cartesian axes, Ry/au):

     atom    1 type  1   force =    -0.00006849    0.00037045    0.00010145
     atom    2 type  1   force =     0.00006849   -0.00037045   -0.00010145

     Total force =     0.000552     Total SCF correction =     0.000306
     SCF correction compared to forces is large: reduce conv_thr to get better values


     Computing stress (Cartesian axis) and pressure

          total   stress  (Ry/bohr**3)                   (kbar)     P=      -38.12
  -0.00026076   0.00000013   0.00000041          -38.36        0.02        0.06
   0.00000013  -0.00025800  -0.00000007            0.02      -37.95       -0.01
   0.00000041  -0.00000007  -0.00025867            0.06       -0.01      -38.05

     Message from routine punch:
     Nothing written, as per user request (disk_io='none')

     init_run     :      4.75s CPU      4.90s WALL (       1 calls)
     electrons    :     58.55s CPU     59.38s WALL (       1 calls)
     forces       :      0.57s CPU      0.57s WALL (       1 calls)
     stress       :      2.94s CPU      2.97s WALL (       1 calls)

     Called by init_run:
     wfcinit      :      4.39s CPU      4.53s WALL (       1 calls)
     potinit      :      0.01s CPU      0.01s WALL (       1 calls)
     hinit0       :      0.28s CPU      0.28s WALL (       1 calls)

     Called by electrons:
     c_bands      :     49.73s CPU     50.44s WALL (       6 calls)
     sum_band     :      8.71s CPU      8.82s WALL (       6 calls)
     v_of_rho     :      0.01s CPU      0.01s WALL (       6 calls)
     newd         :      0.12s CPU      0.13s WALL (       6 calls)
     mix_rho      :      0.00s CPU      0.00s WALL (       6 calls)

     Called by c_bands:
     init_us_2    :      1.94s CPU      1.97s WALL (    7560 calls)
     cegterg      :     45.12s CPU     45.74s WALL (    3024 calls)

     Called by *egterg:
     cdiaghg      :      1.59s CPU      1.61s WALL (    9390 calls)
     h_psi        :     41.95s CPU     42.62s WALL (   10398 calls)
     s_psi        :      1.06s CPU      1.07s WALL (   10398 calls)
     g_psi        :      0.27s CPU      0.28s WALL (    6870 calls)

     Called by h_psi:
     h_psi:calbec :      1.26s CPU      1.28s WALL (   10398 calls)
     vloc_psi     :     39.32s CPU     39.95s WALL (   10398 calls)
     add_vuspsi   :      1.10s CPU      1.12s WALL (   10398 calls)

     General routines
     calbec       :      2.67s CPU      2.70s WALL (   21990 calls)
     fft          :      0.14s CPU      0.14s WALL (      33 calls)
     ffts         :      0.00s CPU      0.00s WALL (       6 calls)
     fftw         :     39.88s CPU     40.50s WALL (  268718 calls)

     Parallel routines

     PWSCF        :   1m 6.89s CPU   1m 7.91s WALL


   This run was terminated on:  21:45:54   8Oct2025            

=------------------------------------------------------------------------------=
   JOB DONE.
=------------------------------------------------------------------------------=
