
     Program PWSCF v.7.4.1 starts on  7Oct2025 at 23:57:27 

     This program is part of the open-source Quantum ESPRESSO suite
     for quantum simulation of materials; please cite
         "P. Giannozzi et al., J. Phys.:Condens. Matter 21 395502 (2009);
         "P. Giannozzi et al., J. Phys.:Condens. Matter 29 465901 (2017);
         "P. Giannozzi et al., J. Chem. Phys. 152 154105 (2020);
          URL http://www.quantum-espresso.org", 
     in publications or presentations arising from this work. More details at
     http://www.quantum-espresso.org/quote

     Parallel version (MPI), running on     1 processors

     MPI processes distributed on     1 nodes
     195 MiB available memory on the printing compute node when the environment starts

     Waiting for input...
     Reading input from standard input
Warning: card &CELL ignored
Warning: card / ignored

     Current dimensions of program PWSCF are:
     Max number of different atomic species (ntypx) = 10
     Max number of k-points (npk) =  40000
     Max angular momentum in pseudopotentials (lmaxx) =  4
     Message from routine setup:
     using ibrav=0 with symmetry is DISCOURAGED, use correct ibrav instead

     Subspace diagonalization in iterative solution of the eigenvalue problem:
     a serial algorithm will be used


     G-vector sticks info
     --------------------
     sticks:   dense  smooth     PW     G-vecs:    dense   smooth      PW
     Sum         637     637    199                10417    10417    1807

     Using Slab Decomposition



     bravais-lattice index     =            0
     lattice parameter (alat)  =       7.5604  a.u.
     unit-cell volume          =     305.5804 (a.u.)^3
     number of atoms/cell      =            2
     number of atomic types    =            1
     number of electrons       =        28.00
     number of Kohn-Sham states=           14
     kinetic-energy cutoff     =      40.0000  Ry
     charge density cutoff     =     160.0000  Ry
     scf convergence threshold =      1.0E-07
     mixing beta               =       0.5000
     number of iterations used =            8  plain     mixing
     Exchange-correlation=  SLA  PZ   NOGX NOGC
                           (   1   1   0   0   0   0   0)

     celldm(1)=   7.560435  celldm(2)=   0.000000  celldm(3)=   0.000000
     celldm(4)=   0.000000  celldm(5)=   0.000000  celldm(6)=   0.000000

     crystal axes: (cart. coord. in units of alat)
               a(1) = (   0.000000   0.707107   0.707107 )  
               a(2) = (   0.707107   0.000000   0.707107 )  
               a(3) = (   0.707107   0.707107   0.000000 )  

     reciprocal axes: (cart. coord. in units 2 pi/alat)
               b(1) = ( -0.707107  0.707107  0.707107 )  
               b(2) = (  0.707107 -0.707107  0.707107 )  
               b(3) = (  0.707107  0.707107 -0.707107 )  


     PseudoPot. # 1 for Ge read from file:
     /home/bond/Software/QE/qe-7.4.1/pseudo/ge_lda_v1.4.uspp.F.UPF
     MD5 check sum: bf9d52b59cc8a669818bb2b52e0c2ba0
     Pseudo is Ultrasoft + core correction, Zval = 14.0
     Generated by new atomic code, or converted to UPF format
     Using radial grid of  873 points,  6 beta functions with: 
                l(1) =   0
                l(2) =   0
                l(3) =   1
                l(4) =   1
                l(5) =   2
                l(6) =   2
     Q(r) pseudized with  8 coefficients,  rinner =    1.400   1.400   1.400
                                                       1.400   1.400

     atomic species   valence    mass     pseudopotential
     Ge               14.00    72.63000     Ge( 1.00)

     48 Sym. Ops., with inversion, found (24 have fractional translation)



   Cartesian axes

     site n.     atom                  positions (alat units)
         1        Ge     tau(   1) = (   0.0000000   0.0000000   0.0000000  )
         2        Ge     tau(   2) = (   0.3535534   0.3535534   0.3535534  )

     number of k points=     8
                       cart. coord. in units 2pi/alat
        k(    1) = (   0.0000000   0.0000000   0.0000000), wk =   0.0312500
        k(    2) = (   0.1767767   0.1767767  -0.1767767), wk =   0.2500000
        k(    3) = (  -0.3535534  -0.3535534   0.3535534), wk =   0.1250000
        k(    4) = (   0.3535534   0.0000000   0.0000000), wk =   0.1875000
        k(    5) = (  -0.1767767  -0.5303301   0.5303301), wk =   0.7500000
        k(    6) = (   0.0000000  -0.3535534   0.3535534), wk =   0.3750000
        k(    7) = (  -0.7071068   0.0000000   0.0000000), wk =   0.0937500
        k(    8) = (  -0.7071068   0.3535534   0.0000000), wk =   0.1875000

     Dense  grid:    10417 G-vectors     FFT dimensions: (  32,  32,  32)

     Estimated max dynamical RAM per process >      42.77 MB

     Check: negative core charge=   -0.000004

     Initial potential from superposition of free atoms

     starting charge      27.9986, renormalised to      28.0000
     Starting wfcs are   18 randomized atomic wfcs

     total cpu time spent up to now is        1.1 secs

     Self-consistent Calculation

     iteration #  1     ecut=    40.00 Ry     beta= 0.50
     Davidson diagonalization with overlap
     ethr =  1.00E-02,  avg # of iterations =  1.8

     Threshold (ethr) on eigenvalues was too large:
     Diagonalizing with lowered threshold

     Davidson diagonalization with overlap
     ethr =  1.31E-04,  avg # of iterations =  2.0

     total cpu time spent up to now is        1.6 secs

     total energy              =    -426.15173908 Ry
     estimated scf accuracy    <       0.03936261 Ry

     iteration #  2     ecut=    40.00 Ry     beta= 0.50
     Davidson diagonalization with overlap
     ethr =  1.41E-04,  avg # of iterations =  1.1

     total cpu time spent up to now is        1.9 secs

     total energy              =    -426.15020478 Ry
     estimated scf accuracy    <       0.00696006 Ry

     iteration #  3     ecut=    40.00 Ry     beta= 0.50
     Davidson diagonalization with overlap
     ethr =  2.49E-05,  avg # of iterations =  2.0

     total cpu time spent up to now is        2.2 secs

     total energy              =    -426.15069931 Ry
     estimated scf accuracy    <       0.00007433 Ry

     iteration #  4     ecut=    40.00 Ry     beta= 0.50
     Davidson diagonalization with overlap
     ethr =  2.65E-07,  avg # of iterations =  3.5

     total cpu time spent up to now is        2.7 secs

     total energy              =    -426.15071842 Ry
     estimated scf accuracy    <       0.00000299 Ry

     iteration #  5     ecut=    40.00 Ry     beta= 0.50
     Davidson diagonalization with overlap
     ethr =  1.07E-08,  avg # of iterations =  3.2

     total cpu time spent up to now is        3.1 secs

     total energy              =    -426.15071923 Ry
     estimated scf accuracy    <       0.00000014 Ry

     iteration #  6     ecut=    40.00 Ry     beta= 0.50
     Davidson diagonalization with overlap
     ethr =  5.14E-10,  avg # of iterations =  4.4

     total cpu time spent up to now is        3.5 secs

     End of self-consistent calculation

          k = 0.0000 0.0000 0.0000 (  1291 PWs)   bands (ev):

   -16.6768 -16.6768 -16.6768 -16.6408 -16.6408 -16.4296 -16.4296 -16.4296
   -16.4162 -16.4162  -4.6288   8.0070   8.1965   8.1965

          k = 0.1768 0.1768-0.1768 (  1323 PWs)   bands (ev):

   -16.6951 -16.6951 -16.6682 -16.6121 -16.6121 -16.4554 -16.4554 -16.4397
   -16.3958 -16.3958  -3.8868   3.4147   7.3104   7.3104

          k =-0.3536-0.3536 0.3536 (  1308 PWs)   bands (ev):

   -16.7014 -16.7014 -16.6593 -16.5988 -16.5988 -16.4642 -16.4642 -16.4503
   -16.3889 -16.3889  -2.5400   0.5409   6.7883   6.7883

          k = 0.3536 0.0000 0.0000 (  1299 PWs)   bands (ev):

   -16.6951 -16.6951 -16.6832 -16.6065 -16.5714 -16.5169 -16.4478 -16.4035
   -16.4010 -16.4010  -3.6189   3.4062   6.1508   6.1508

          k =-0.1768-0.5303 0.5303 (  1301 PWs)   bands (ev):

   -16.7225 -16.7075 -16.6393 -16.5717 -16.5522 -16.5335 -16.4853 -16.4538
   -16.3809 -16.3665  -2.1304   0.7526   4.4377   5.7862

          k = 0.0000-0.3536 0.3536 (  1312 PWs)   bands (ev):

   -16.7177 -16.7102 -16.6330 -16.5964 -16.5689 -16.4969 -16.4775 -16.4644
   -16.3773 -16.3740  -2.7445   1.6070   4.2979   6.6867

          k =-0.7071 0.0000 0.0000 (  1298 PWs)   bands (ev):

   -16.7109 -16.7109 -16.6252 -16.6252 -16.5259 -16.5259 -16.4683 -16.4683
   -16.3749 -16.3749  -0.7473  -0.7473   5.1123   5.1123

          k =-0.7071 0.3536 0.0000 (  1316 PWs)   bands (ev):

   -16.7247 -16.7247 -16.5827 -16.5827 -16.5336 -16.5336 -16.5014 -16.5014
   -16.3627 -16.3627  -0.6494  -0.6494   4.2629   4.2629

     highest occupied level (ev):     8.1965

!    total energy              =    -426.15071928 Ry
     estimated scf accuracy    <       0.00000003 Ry

     The total energy is the sum of the following terms:
     one-electron contribution =    -279.23865921 Ry
     hartree contribution      =     165.13471504 Ry
     xc contribution           =    -114.55230005 Ry
     ewald contribution        =    -197.49447505 Ry

     convergence has been achieved in   6 iterations

     Forces acting on atoms (cartesian axes, Ry/au):

     atom    1 type  1   force =     0.00000000    0.00000000    0.00000000
     atom    2 type  1   force =    -0.00000000   -0.00000000   -0.00000000

     Total force =     0.000000     Total SCF correction =     0.000000


     Computing stress (Cartesian axis) and pressure

          total   stress  (Ry/bohr**3)                   (kbar)     P=       -2.62
  -0.00001783  -0.00000000  -0.00000000           -2.62       -0.00       -0.00
  -0.00000000  -0.00001783  -0.00000000           -0.00       -2.62       -0.00
  -0.00000000  -0.00000000  -0.00001783           -0.00       -0.00       -2.62

     Message from routine punch:
     Nothing written, as per user request (disk_io='none')

     init_run     :      0.80s CPU      0.90s WALL (       1 calls)
     electrons    :      2.34s CPU      2.42s WALL (       1 calls)
     forces       :      0.07s CPU      0.07s WALL (       1 calls)
     stress       :      0.55s CPU      0.55s WALL (       1 calls)

     Called by init_run:
     wfcinit      :      0.24s CPU      0.25s WALL (       1 calls)
     potinit      :      0.02s CPU      0.02s WALL (       1 calls)
     hinit0       :      0.50s CPU      0.57s WALL (       1 calls)

     Called by electrons:
     c_bands      :      1.48s CPU      1.54s WALL (       7 calls)
     sum_band     :      0.59s CPU      0.61s WALL (       7 calls)
     v_of_rho     :      0.02s CPU      0.02s WALL (       7 calls)
     newd         :      0.28s CPU      0.30s WALL (       7 calls)
     mix_rho      :      0.01s CPU      0.01s WALL (       7 calls)

     Called by c_bands:
     init_us_2    :      0.08s CPU      0.08s WALL (     136 calls)
     cegterg      :      1.31s CPU      1.36s WALL (      56 calls)

     Called by *egterg:
     cdiaghg      :      0.06s CPU      0.06s WALL (     192 calls)
     h_psi        :      1.25s CPU      1.29s WALL (     208 calls)
     s_psi        :      0.04s CPU      0.04s WALL (     208 calls)
     g_psi        :      0.01s CPU      0.01s WALL (     144 calls)

     Called by h_psi:
     h_psi:calbec :      0.05s CPU      0.06s WALL (     208 calls)
     vloc_psi     :      1.14s CPU      1.18s WALL (     208 calls)
     add_vuspsi   :      0.05s CPU      0.05s WALL (     208 calls)

     General routines
     calbec       :      0.10s CPU      0.10s WALL (     400 calls)
     fft          :      0.18s CPU      0.23s WALL (      37 calls)
     ffts         :      0.00s CPU      0.00s WALL (       7 calls)
     fftw         :      1.08s CPU      1.12s WALL (    5076 calls)

     Parallel routines

     PWSCF        :      3.91s CPU      4.11s WALL


   This run was terminated on:  23:57:31   7Oct2025            

=------------------------------------------------------------------------------=
   JOB DONE.
=------------------------------------------------------------------------------=
