
     Program PWSCF v.7.4.1 starts on  8Oct2025 at  2:12:38 

     This program is part of the open-source Quantum ESPRESSO suite
     for quantum simulation of materials; please cite
         "P. Giannozzi et al., J. Phys.:Condens. Matter 21 395502 (2009);
         "P. Giannozzi et al., J. Phys.:Condens. Matter 29 465901 (2017);
         "P. Giannozzi et al., J. Chem. Phys. 152 154105 (2020);
          URL http://www.quantum-espresso.org", 
     in publications or presentations arising from this work. More details at
     http://www.quantum-espresso.org/quote

     Parallel version (MPI), running on     1 processors

     MPI processes distributed on     1 nodes
     466 MiB available memory on the printing compute node when the environment starts

     Waiting for input...
     Reading input from standard input
Warning: card &CELL ignored
Warning: card / ignored

     Current dimensions of program PWSCF are:
     Max number of different atomic species (ntypx) = 10
     Max number of k-points (npk) =  40000
     Max angular momentum in pseudopotentials (lmaxx) =  4
     Message from routine setup:
     using ibrav=0 with symmetry is DISCOURAGED, use correct ibrav instead

     Subspace diagonalization in iterative solution of the eigenvalue problem:
     a serial algorithm will be used


     G-vector sticks info
     --------------------
     sticks:   dense  smooth     PW     G-vecs:    dense   smooth      PW
     Sum         421     421    139                 5521     5521    1037

     Using Slab Decomposition



     bravais-lattice index     =            0
     lattice parameter (alat)  =       7.6908  a.u.
     unit-cell volume          =     321.6610 (a.u.)^3
     number of atoms/cell      =            2
     number of atomic types    =            1
     number of electrons       =        28.00
     number of Kohn-Sham states=           14
     kinetic-energy cutoff     =      25.0000  Ry
     charge density cutoff     =     100.0000  Ry
     scf convergence threshold =      1.0E-07
     mixing beta               =       0.5000
     number of iterations used =            8  plain     mixing
     Exchange-correlation=  SLA  PZ   NOGX NOGC
                           (   1   1   0   0   0   0   0)

     celldm(1)=   7.690793  celldm(2)=   0.000000  celldm(3)=   0.000000
     celldm(4)=   0.000000  celldm(5)=   0.000000  celldm(6)=   0.000000

     crystal axes: (cart. coord. in units of alat)
               a(1) = (   0.000000   0.707107   0.707107 )  
               a(2) = (   0.707107   0.000000   0.707107 )  
               a(3) = (   0.707107   0.707107   0.000000 )  

     reciprocal axes: (cart. coord. in units 2 pi/alat)
               b(1) = ( -0.707107  0.707107  0.707107 )  
               b(2) = (  0.707107 -0.707107  0.707107 )  
               b(3) = (  0.707107  0.707107 -0.707107 )  


     PseudoPot. # 1 for Ge read from file:
     /home/bond/Software/QE/qe-7.4.1/pseudo/ge_lda_v1.4.uspp.F.UPF
     MD5 check sum: bf9d52b59cc8a669818bb2b52e0c2ba0
     Pseudo is Ultrasoft + core correction, Zval = 14.0
     Generated by new atomic code, or converted to UPF format
     Using radial grid of  873 points,  6 beta functions with: 
                l(1) =   0
                l(2) =   0
                l(3) =   1
                l(4) =   1
                l(5) =   2
                l(6) =   2
     Q(r) pseudized with  8 coefficients,  rinner =    1.400   1.400   1.400
                                                       1.400   1.400

     atomic species   valence    mass     pseudopotential
     Ge               14.00    72.63000     Ge( 1.00)

     48 Sym. Ops., with inversion, found (24 have fractional translation)



   Cartesian axes

     site n.     atom                  positions (alat units)
         1        Ge     tau(   1) = (   0.0000000   0.0000000   0.0000000  )
         2        Ge     tau(   2) = (   0.3535537   0.3535537   0.3535537  )

     number of k points=    47
                       cart. coord. in units 2pi/alat
        k(    1) = (   0.0000000   0.0000000   0.0000000), wk =   0.0020000
        k(    2) = (   0.0707107   0.0707107  -0.0707107), wk =   0.0160000
        k(    3) = (   0.1414214   0.1414214  -0.1414214), wk =   0.0160000
        k(    4) = (   0.2121320   0.2121320  -0.2121320), wk =   0.0160000
        k(    5) = (   0.2828427   0.2828427  -0.2828427), wk =   0.0160000
        k(    6) = (  -0.3535534  -0.3535534   0.3535534), wk =   0.0080000
        k(    7) = (   0.1414214   0.0000000   0.0000000), wk =   0.0120000
        k(    8) = (   0.2121320   0.0707107  -0.0707107), wk =   0.0480000
        k(    9) = (   0.2828427   0.1414214  -0.1414214), wk =   0.0480000
        k(   10) = (   0.3535534   0.2121320  -0.2121320), wk =   0.0480000
        k(   11) = (  -0.2828427  -0.4242641   0.4242641), wk =   0.0480000
        k(   12) = (  -0.2121320  -0.3535534   0.3535534), wk =   0.0480000
        k(   13) = (  -0.1414214  -0.2828427   0.2828427), wk =   0.0480000
        k(   14) = (  -0.0707107  -0.2121320   0.2121320), wk =   0.0480000
        k(   15) = (   0.0000000  -0.1414214   0.1414214), wk =   0.0240000
        k(   16) = (   0.2828427   0.0000000   0.0000000), wk =   0.0120000
        k(   17) = (   0.3535534   0.0707107  -0.0707107), wk =   0.0480000
        k(   18) = (   0.4242641   0.1414214  -0.1414214), wk =   0.0480000
        k(   19) = (  -0.2121320  -0.4949747   0.4949747), wk =   0.0480000
        k(   20) = (  -0.1414214  -0.4242641   0.4242641), wk =   0.0480000
        k(   21) = (  -0.0707107  -0.3535534   0.3535534), wk =   0.0480000
        k(   22) = (   0.0000000  -0.2828427   0.2828427), wk =   0.0240000
        k(   23) = (   0.4242641   0.0000000   0.0000000), wk =   0.0120000
        k(   24) = (   0.4949747   0.0707107  -0.0707107), wk =   0.0480000
        k(   25) = (  -0.1414214  -0.5656854   0.5656854), wk =   0.0480000
        k(   26) = (  -0.0707107  -0.4949747   0.4949747), wk =   0.0480000
        k(   27) = (  -0.0000000  -0.4242641   0.4242641), wk =   0.0240000
        k(   28) = (   0.5656854   0.0000000   0.0000000), wk =   0.0120000
        k(   29) = (  -0.0707107  -0.6363961   0.6363961), wk =   0.0480000
        k(   30) = (   0.0000000  -0.5656854   0.5656854), wk =   0.0240000
        k(   31) = (  -0.7071068   0.0000000   0.0000000), wk =   0.0060000
        k(   32) = (   0.2828427   0.1414214   0.0000000), wk =   0.0480000
        k(   33) = (   0.3535534   0.2121320  -0.0707107), wk =   0.0960000
        k(   34) = (  -0.2828427  -0.4242641   0.5656854), wk =   0.0960000
        k(   35) = (  -0.2121320  -0.3535534   0.4949747), wk =   0.0480000
        k(   36) = (   0.4242641   0.1414214  -0.0000000), wk =   0.0480000
        k(   37) = (  -0.2121320  -0.4949747   0.6363961), wk =   0.0960000
        k(   38) = (  -0.1414214  -0.4242641   0.5656854), wk =   0.0960000
        k(   39) = (  -0.0707107  -0.3535534   0.4949747), wk =   0.0960000
        k(   40) = (   0.0000000  -0.2828427   0.4242641), wk =   0.0480000
        k(   41) = (  -0.1414214  -0.5656854   0.7071068), wk =   0.0480000
        k(   42) = (  -0.0707107  -0.4949747   0.6363961), wk =   0.0960000
        k(   43) = (  -0.0000000  -0.4242641   0.5656854), wk =   0.0480000
        k(   44) = (  -0.7071068   0.1414214   0.0000000), wk =   0.0240000
        k(   45) = (  -0.1414214  -0.4242641   0.7071068), wk =   0.0480000
        k(   46) = (  -0.0707107  -0.3535534   0.6363961), wk =   0.0480000
        k(   47) = (  -0.7071068   0.2828427   0.0000000), wk =   0.0240000

     Dense  grid:     5521 G-vectors     FFT dimensions: (  32,  32,  32)

     Estimated max dynamical RAM per process >      29.62 MB

     Check: negative core charge=   -0.000557

     Initial potential from superposition of free atoms

     starting charge      27.9986, renormalised to      28.0000
     Starting wfcs are   18 randomized atomic wfcs

     total cpu time spent up to now is        1.2 secs

     Self-consistent Calculation

     iteration #  1     ecut=    25.00 Ry     beta= 0.50
     Davidson diagonalization with overlap
     ethr =  1.00E-02,  avg # of iterations =  1.6

     Threshold (ethr) on eigenvalues was too large:
     Diagonalizing with lowered threshold

     Davidson diagonalization with overlap
     ethr =  1.49E-04,  avg # of iterations =  2.0

     total cpu time spent up to now is        2.9 secs

     total energy              =    -425.91351998 Ry
     estimated scf accuracy    <       0.04583716 Ry

     iteration #  2     ecut=    25.00 Ry     beta= 0.50
     Davidson diagonalization with overlap
     ethr =  1.64E-04,  avg # of iterations =  1.4

     total cpu time spent up to now is        3.7 secs

     total energy              =    -425.91438603 Ry
     estimated scf accuracy    <       0.00612680 Ry

     iteration #  3     ecut=    25.00 Ry     beta= 0.50
     Davidson diagonalization with overlap
     ethr =  2.19E-05,  avg # of iterations =  2.0

     total cpu time spent up to now is        4.6 secs

     total energy              =    -425.91490081 Ry
     estimated scf accuracy    <       0.00013491 Ry

     iteration #  4     ecut=    25.00 Ry     beta= 0.50
     Davidson diagonalization with overlap
     ethr =  4.82E-07,  avg # of iterations =  3.7

     total cpu time spent up to now is        5.7 secs

     total energy              =    -425.91493821 Ry
     estimated scf accuracy    <       0.00000834 Ry

     iteration #  5     ecut=    25.00 Ry     beta= 0.50
     Davidson diagonalization with overlap
     ethr =  2.98E-08,  avg # of iterations =  2.4

     total cpu time spent up to now is        6.7 secs

     total energy              =    -425.91493966 Ry
     estimated scf accuracy    <       0.00000049 Ry

     iteration #  6     ecut=    25.00 Ry     beta= 0.50
     Davidson diagonalization with overlap
     ethr =  1.76E-09,  avg # of iterations =  3.5

     total cpu time spent up to now is        7.8 secs

     End of self-consistent calculation

          k = 0.0000 0.0000 0.0000 (   645 PWs)   bands (ev):

   -17.7208 -17.7208 -17.7208 -17.7031 -17.7031 -17.5461 -17.5461 -17.4323
   -17.4323 -17.4323  -4.9420   6.8204   7.4884   7.4884

          k = 0.0707 0.0707-0.0707 (   679 PWs)   bands (ev):

   -17.7879 -17.7879 -17.7843 -17.7338 -17.7338 -17.5826 -17.5826 -17.5261
   -17.5159 -17.5159  -4.8264   5.3999   7.2743   7.2743

          k = 0.1414 0.1414-0.1414 (   667 PWs)   bands (ev):

   -17.7762 -17.7762 -17.7644 -17.7126 -17.7126 -17.5522 -17.5522 -17.5218
   -17.4990 -17.4990  -4.4862   3.6115   6.8606   6.8606

          k = 0.2121 0.2121-0.2121 (   673 PWs)   bands (ev):

   -17.8025 -17.8025 -17.7577 -17.6929 -17.6929 -17.5825 -17.5825 -17.5319
   -17.5034 -17.5034  -3.9524   1.9627   6.4893   6.4893

          k = 0.2828 0.2828-0.2828 (   679 PWs)   bands (ev):

   -17.8125 -17.8125 -17.7698 -17.6877 -17.6877 -17.5834 -17.5834 -17.5782
   -17.5173 -17.5173  -3.3311   0.6489   6.2490   6.2491

          k =-0.3536-0.3536 0.3536 (   700 PWs)   bands (ev):

   -17.8276 -17.8276 -17.7827 -17.7302 -17.7302 -17.6138 -17.5990 -17.5990
   -17.5760 -17.5760  -2.9866   0.0701   6.1668   6.1668

          k = 0.1414 0.0000 0.0000 (   677 PWs)   bands (ev):

   -17.7810 -17.7810 -17.7742 -17.7514 -17.7308 -17.5842 -17.5416 -17.5416
   -17.5345 -17.5100  -4.7874   5.2978   6.9076   6.9076

          k = 0.2121 0.0707-0.0707 (   679 PWs)   bands (ev):

   -17.7938 -17.7876 -17.7668 -17.7431 -17.7243 -17.5747 -17.5723 -17.5510
   -17.5349 -17.5253  -4.5204   3.9711   6.4544   6.4590

          k = 0.2828 0.1414-0.1414 (   671 PWs)   bands (ev):

   -17.8005 -17.7918 -17.7368 -17.7237 -17.6697 -17.5848 -17.5727 -17.5303
   -17.5194 -17.4974  -4.0454   2.4032   5.9318   6.1136

          k = 0.3536 0.2121-0.2121 (   675 PWs)   bands (ev):

   -17.8143 -17.8085 -17.7413 -17.6846 -17.6643 -17.6068 -17.5874 -17.5804
   -17.5018 -17.4967  -3.4308   1.0096   5.4944   5.9371

          k =-0.2828-0.4243 0.4243 (   677 PWs)   bands (ev):

   -17.8201 -17.8119 -17.7496 -17.6721 -17.6676 -17.6234 -17.6047 -17.5883
   -17.4968 -17.4944  -2.9261   0.1382   5.2166   5.9464

          k =-0.2121-0.3536 0.3536 (   672 PWs)   bands (ev):

   -17.8184 -17.8039 -17.7403 -17.6714 -17.6597 -17.6040 -17.5832 -17.5800
   -17.4957 -17.4930  -3.0525   0.3405   5.1280   6.1344

          k =-0.1414-0.2828 0.2828 (   671 PWs)   bands (ev):

   -17.8114 -17.7986 -17.7464 -17.6908 -17.6630 -17.5774 -17.5744 -17.5673
   -17.4977 -17.4969  -3.6451   1.4431   5.2511   6.4732

          k =-0.0707-0.2121 0.2121 (   671 PWs)   bands (ev):

   -17.7997 -17.7952 -17.7566 -17.7189 -17.6986 -17.5717 -17.5715 -17.5382
   -17.5008 -17.4836  -4.2264   2.9097   5.6195   6.9001

          k = 0.0000-0.1414 0.1414 (   676 PWs)   bands (ev):

   -17.7876 -17.7776 -17.7738 -17.7352 -17.7237 -17.5794 -17.5721 -17.5432
   -17.5162 -17.5131  -4.6352   4.3895   6.3192   7.2613

          k = 0.2828 0.0000 0.0000 (   681 PWs)   bands (ev):

   -17.7955 -17.7955 -17.7632 -17.7412 -17.7144 -17.5913 -17.5904 -17.5601
   -17.5299 -17.5299  -4.3266   3.5273   5.9879   5.9879

          k = 0.3536 0.0707-0.0707 (   678 PWs)   bands (ev):

   -17.8066 -17.8046 -17.7495 -17.7287 -17.6658 -17.6237 -17.5892 -17.5608
   -17.5147 -17.5116  -3.9166   2.4337   5.4045   5.6279

          k = 0.4243 0.1414-0.1414 (   676 PWs)   bands (ev):

   -17.8120 -17.8104 -17.7350 -17.7065 -17.6547 -17.6290 -17.6020 -17.5620
   -17.5118 -17.5056  -3.3334   1.2088   4.7294   5.4498

          k =-0.2121-0.4950 0.4950 (   683 PWs)   bands (ev):

   -17.8355 -17.8205 -17.7385 -17.6938 -17.6723 -17.6434 -17.6144 -17.6016
   -17.5146 -17.5118  -2.7357   0.2265   4.2220   5.4750

          k =-0.1414-0.4243 0.4243 (   687 PWs)   bands (ev):

   -17.8356 -17.8219 -17.7374 -17.6983 -17.6861 -17.6461 -17.6354 -17.6082
   -17.5319 -17.5160  -2.6240   0.0683   3.9669   5.6976

          k =-0.0707-0.3536 0.3536 (   681 PWs)   bands (ev):

   -17.8247 -17.8213 -17.7391 -17.6947 -17.6601 -17.6312 -17.6211 -17.5943
   -17.5195 -17.5050  -3.1482   0.8737   4.0280   6.0838

          k = 0.0000-0.2828 0.2828 (   670 PWs)   bands (ev):

   -17.8097 -17.7904 -17.7394 -17.7077 -17.6733 -17.5859 -17.5703 -17.5489
   -17.5088 -17.4814  -3.7597   1.9673   4.5323   6.5491

          k = 0.4243 0.0000 0.0000 (   681 PWs)   bands (ev):

   -17.8138 -17.8138 -17.7483 -17.7210 -17.6795 -17.6387 -17.6101 -17.5727
   -17.4981 -17.4981  -3.5707   1.8166   5.2353   5.2353

          k = 0.4950 0.0707-0.0707 (   683 PWs)   bands (ev):

   -17.8253 -17.8193 -17.7411 -17.7084 -17.6666 -17.6405 -17.6189 -17.5777
   -17.5379 -17.5137  -3.0331   0.9035   4.6496   5.0217

          k =-0.1414-0.5657 0.5657 (   680 PWs)   bands (ev):

   -17.8307 -17.8230 -17.7177 -17.6812 -17.6597 -17.6406 -17.6347 -17.5897
   -17.5342 -17.4947  -2.3977   0.0247   3.9040   5.0171

          k =-0.0707-0.4950 0.4950 (   684 PWs)   bands (ev):

   -17.8379 -17.8261 -17.7139 -17.6763 -17.6685 -17.6669 -17.6357 -17.6131
   -17.5191 -17.5171  -2.0829  -0.3473   3.4203   5.2211

          k =-0.0000-0.4243 0.4243 (   682 PWs)   bands (ev):

   -17.8366 -17.8144 -17.7112 -17.6862 -17.6648 -17.6579 -17.6537 -17.5945
   -17.5223 -17.5066  -2.5314   0.1789   3.4053   5.6036

          k = 0.5657 0.0000 0.0000 (   676 PWs)   bands (ev):

   -17.8114 -17.8114 -17.7136 -17.6859 -17.6557 -17.6440 -17.6167 -17.5810
   -17.5106 -17.5106  -2.5401   0.2025   4.7606   4.7606

          k =-0.0707-0.6364 0.6364 (   678 PWs)   bands (ev):

   -17.8306 -17.8122 -17.7056 -17.6705 -17.6550 -17.6342 -17.6292 -17.5928
   -17.5242 -17.5151  -1.9030  -0.5610   4.2634   4.7074

          k = 0.0000-0.5657 0.5657 (   688 PWs)   bands (ev):

   -17.8370 -17.8355 -17.7115 -17.6909 -17.6636 -17.6620 -17.6457 -17.6429
   -17.5263 -17.5201  -1.5469  -0.9050   3.6153   4.8683

          k =-0.7071 0.0000 0.0000 (   692 PWs)   bands (ev):

   -17.8334 -17.8334 -17.7191 -17.7190 -17.6657 -17.6655 -17.6342 -17.6342
   -17.5439 -17.5439  -1.2674  -1.2673   4.5993   4.5993

          k = 0.2828 0.1414 0.0000 (   677 PWs)   bands (ev):

   -17.8045 -17.7992 -17.7669 -17.7341 -17.6820 -17.5945 -17.5892 -17.5459
   -17.5130 -17.5105  -4.1830   2.9830   5.4090   6.3897

          k = 0.3536 0.2121-0.0707 (   677 PWs)   bands (ev):

   -17.8160 -17.8075 -17.7506 -17.7097 -17.6554 -17.6229 -17.5987 -17.5501
   -17.5182 -17.5000  -3.6517   1.7309   4.7490   6.0396

          k =-0.2828-0.4243 0.5657 (   675 PWs)   bands (ev):

   -17.8137 -17.8077 -17.7294 -17.6912 -17.6619 -17.6245 -17.6031 -17.5721
   -17.5088 -17.4976  -3.0267   0.5751   4.4225   5.7257

          k =-0.2121-0.3536 0.4950 (   678 PWs)   bands (ev):

   -17.8282 -17.8156 -17.7328 -17.6730 -17.6666 -17.6442 -17.6077 -17.5817
   -17.5126 -17.5057  -2.6721   0.0301   4.3257   5.6063

          k = 0.4243 0.1414-0.0000 (   680 PWs)   bands (ev):

   -17.8187 -17.8091 -17.7527 -17.7161 -17.6554 -17.6465 -17.5966 -17.5665
   -17.5173 -17.5158  -3.4449   1.5422   4.7012   5.3677

          k =-0.2121-0.4950 0.6364 (   673 PWs)   bands (ev):

   -17.8169 -17.8119 -17.7232 -17.6938 -17.6388 -17.6296 -17.5998 -17.5737
   -17.5063 -17.4978  -2.8278   0.5655   4.0922   5.0824

          k =-0.1414-0.4243 0.5657 (   681 PWs)   bands (ev):

   -17.8364 -17.8218 -17.7243 -17.6777 -17.6687 -17.6529 -17.6286 -17.5920
   -17.5136 -17.5076  -2.3064  -0.1362   3.6947   5.0316

          k =-0.0707-0.3536 0.4950 (   680 PWs)   bands (ev):

   -17.8279 -17.8217 -17.7220 -17.6812 -17.6615 -17.6590 -17.6309 -17.5786
   -17.5243 -17.5021  -2.4712   0.0769   3.5912   5.2455

          k = 0.0000-0.2828 0.4243 (   675 PWs)   bands (ev):

   -17.8125 -17.8123 -17.7325 -17.6891 -17.6427 -17.6425 -17.6029 -17.5579
   -17.5261 -17.5017  -3.0826   0.9061   3.9038   5.6453

          k =-0.1414-0.5657 0.7071 (   676 PWs)   bands (ev):

   -17.8226 -17.8179 -17.7070 -17.6845 -17.6462 -17.6241 -17.6240 -17.5750
   -17.5270 -17.5148  -2.4487   0.1158   4.3112   4.6372

          k =-0.0707-0.4950 0.6364 (   686 PWs)   bands (ev):

   -17.8453 -17.8279 -17.7173 -17.6876 -17.6766 -17.6494 -17.6384 -17.6088
   -17.5295 -17.5217  -1.8295  -0.5811   3.7306   4.5492

          k =-0.0000-0.4243 0.5657 (   689 PWs)   bands (ev):

   -17.8460 -17.8349 -17.7161 -17.6985 -17.6752 -17.6644 -17.6540 -17.6107
   -17.5279 -17.5242  -1.8729  -0.5208   3.3772   4.7969

          k =-0.7071 0.1414 0.0000 (   678 PWs)   bands (ev):

   -17.8312 -17.8312 -17.6800 -17.6799 -17.6539 -17.6537 -17.6044 -17.6043
   -17.5145 -17.5145  -1.2398  -1.2397   4.2826   4.2827

          k =-0.1414-0.4243 0.7071 (   676 PWs)   bands (ev):

   -17.8305 -17.8271 -17.7161 -17.6681 -17.6542 -17.6428 -17.6153 -17.5931
   -17.5010 -17.4917  -2.2014  -0.1446   3.6623   4.5828

          k =-0.0707-0.3536 0.6364 (   686 PWs)   bands (ev):

   -17.8411 -17.8283 -17.7245 -17.6932 -17.6744 -17.6601 -17.6359 -17.6164
   -17.5181 -17.5157  -1.7795  -0.5992   3.5360   4.3606

          k =-0.7071 0.2828 0.0000 (   686 PWs)   bands (ev):

   -17.8339 -17.8339 -17.7042 -17.7042 -17.6588 -17.6587 -17.6244 -17.6243
   -17.5313 -17.5313  -1.1938  -1.1937   3.8808   3.8808

     highest occupied level (ev):     7.4884

!    total energy              =    -425.91493989 Ry
     estimated scf accuracy    <       0.00000007 Ry

     The total energy is the sum of the following terms:
     one-electron contribution =    -283.72808088 Ry
     hartree contribution      =     166.21884394 Ry
     xc contribution           =    -114.25872113 Ry
     ewald contribution        =    -194.14698182 Ry

     convergence has been achieved in   6 iterations

     Forces acting on atoms (cartesian axes, Ry/au):

     atom    1 type  1   force =    -0.00000000    0.00000000   -0.00000000
     atom    2 type  1   force =     0.00000000   -0.00000000    0.00000000

     Total force =     0.000000     Total SCF correction =     0.000000


     Computing stress (Cartesian axis) and pressure

          total   stress  (Ry/bohr**3)                   (kbar)     P=     -762.05
  -0.00518030  -0.00000000  -0.00000000         -762.05       -0.00       -0.00
  -0.00000000  -0.00518030  -0.00000000           -0.00     -762.05       -0.00
  -0.00000000  -0.00000000  -0.00518030           -0.00       -0.00     -762.05

     Message from routine punch:
     Nothing written, as per user request (disk_io='none')

     init_run     :      0.97s CPU      1.05s WALL (       1 calls)
     electrons    :      6.55s CPU      6.65s WALL (       1 calls)
     forces       :      0.07s CPU      0.07s WALL (       1 calls)
     stress       :      0.47s CPU      0.48s WALL (       1 calls)

     Called by init_run:
     wfcinit      :      0.59s CPU      0.64s WALL (       1 calls)
     potinit      :      0.02s CPU      0.02s WALL (       1 calls)
     hinit0       :      0.33s CPU      0.34s WALL (       1 calls)

     Called by electrons:
     c_bands      :      5.38s CPU      5.46s WALL (       7 calls)
     sum_band     :      1.04s CPU      1.06s WALL (       7 calls)
     v_of_rho     :      0.01s CPU      0.02s WALL (       7 calls)
     newd         :      0.14s CPU      0.14s WALL (       7 calls)
     mix_rho      :      0.00s CPU      0.00s WALL (       7 calls)

     Called by c_bands:
     init_us_2    :      0.20s CPU      0.21s WALL (     799 calls)
     cegterg      :      4.92s CPU      5.00s WALL (     329 calls)

     Called by *egterg:
     cdiaghg      :      0.28s CPU      0.28s WALL (    1064 calls)
     h_psi        :      4.59s CPU      4.71s WALL (    1158 calls)
     s_psi        :      0.10s CPU      0.11s WALL (    1158 calls)
     g_psi        :      0.02s CPU      0.02s WALL (     782 calls)

     Called by h_psi:
     h_psi:calbec :      0.15s CPU      0.15s WALL (    1158 calls)
     vloc_psi     :      4.28s CPU      4.40s WALL (    1158 calls)
     add_vuspsi   :      0.11s CPU      0.12s WALL (    1158 calls)

     General routines
     calbec       :      0.28s CPU      0.29s WALL (    2286 calls)
     fft          :      0.16s CPU      0.17s WALL (      37 calls)
     ffts         :      0.00s CPU      0.00s WALL (       7 calls)
     fftw         :      4.04s CPU      4.15s WALL (   29176 calls)

     Parallel routines

     PWSCF        :      8.21s CPU      8.39s WALL


   This run was terminated on:   2:12:47   8Oct2025            

=------------------------------------------------------------------------------=
   JOB DONE.
=------------------------------------------------------------------------------=
