LAMMPS (22 Jul 2025 - Update 1)
# ---------- 1. Initialize simulation ---------------------
units metal
atom_style atomic
dimension  3
boundary   p p f
read_data /home/bond/Work/Lab1/Surface/EAM/relax/4_6_111/lammps.data
Reading data file ...
  orthogonal box = (0 0 0) to (8.6584976 7.4984789 19.069634)
  1 by 1 by 1 MPI processor grid
  reading atoms ...
  36 atoms
  read_data CPU = 0.001 seconds

# ---------- 2. Specify interatomic potential ---------------------
pair_style eam/alloy
pair_coeff * * /home/bond/Software/LAMMPS/lammps-22Jul2025/potentials/Al_zhou.eam.alloy  Al
Reading eam/alloy potential file /home/bond/Software/LAMMPS/lammps-22Jul2025/potentials/Al_zhou.eam.alloy with DATE: 2007-10-12

# pair_style lj/cut 4.5
# pair_coeff 1 1 0.392 2.620 4.5

# ---------- 3. Run single point calculation  ---------------------
thermo_style custom step pe lx ly lz press pxx pyy pzz
run 0
WARNING: No fixes with time integration, atoms won't move
For more information see https://docs.lammps.org/err0028 (../verlet.cpp:60)
Neighbor list info ...
  update: every = 1 steps, delay = 0 steps, check = yes
  max neighbors/atom: 2000, page size: 100000
  master list distance cutoff = 12.1025
  ghost atom cutoff = 12.1025
  binsize = 6.05125, bins = 2 2 4
  1 neighbor lists, perpetual/occasional/extra = 1 0 0
  (1) pair eam/alloy, perpetual
      attributes: half, newton on
      pair build: half/bin/atomonly/newton
      stencil: half/bin/3d
      bin: standard
Per MPI rank memory allocation (min/avg/max) = 3.32 | 3.32 | 3.32 Mbytes
   Step         PotEng           Lx             Ly             Lz           Press           Pxx            Pyy            Pzz      
         0  -120.13705      8.6584976      7.4984789      19.069634     -5620.4204     -16586.685      2929.9646     -3204.5404    
Loop time of 1.737e-06 on 1 procs for 0 steps with 36 atoms

115.1% CPU use with 1 MPI tasks x no OpenMP threads

MPI task timing breakdown:
Section |  min time  |  avg time  |  max time  |%varavg| %total
---------------------------------------------------------------
Pair    | 0          | 0          | 0          |   0.0 |  0.00
Neigh   | 0          | 0          | 0          |   0.0 |  0.00
Comm    | 0          | 0          | 0          |   0.0 |  0.00
Output  | 0          | 0          | 0          |   0.0 |  0.00
Modify  | 0          | 0          | 0          |   0.0 |  0.00
Other   |            | 1.737e-06  |            |       |100.00

Nlocal:             36 ave          36 max          36 min
Histogram: 1 0 0 0 0 0 0 0 0 0
Nghost:            543 ave         543 max         543 min
Histogram: 1 0 0 0 0 0 0 0 0 0
Neighs:           4140 ave        4140 max        4140 min
Histogram: 1 0 0 0 0 0 0 0 0 0

Total # of neighbors = 4140
Ave neighs/atom = 115
Neighbor list builds = 0
Dangerous builds = 0
# -- include optimization of the unit cell parameter
#fix 1 all box/relax x 0.0 y 0.0 couple xy vmax 0.001

# -- enable optimization of atomic positions (and the cell)
min_style cg
minimize 1e-10 1e-10 1000 10000
Per MPI rank memory allocation (min/avg/max) = 4.445 | 4.445 | 4.445 Mbytes
   Step         PotEng           Lx             Ly             Lz           Press           Pxx            Pyy            Pzz      
         0  -120.13705      8.6584976      7.4984789      19.069634     -5620.4204     -16586.685      2929.9646     -3204.5404    
        22  -121.07471      8.6584976      7.4984789      19.069634     -1457.8238     -9163.9543      4790.2092      0.27366664   
Loop time of 0.0109041 on 1 procs for 22 steps with 36 atoms

100.0% CPU use with 1 MPI tasks x no OpenMP threads

Minimization stats:
  Stopping criterion = energy tolerance
  Energy initial, next-to-last, final = 
     -120.137053351127  -121.074706631739  -121.074706641975
  Force two-norm initial, final = 2.9133982 0.00014164847
  Force max component initial, final = 0.65895087 3.330731e-05
  Final line search alpha, max atom move = 1 3.330731e-05
  Iterations, force evaluations = 22 41

MPI task timing breakdown:
Section |  min time  |  avg time  |  max time  |%varavg| %total
---------------------------------------------------------------
Pair    | 0.010388   | 0.010388   | 0.010388   |   0.0 | 95.27
Neigh   | 0          | 0          | 0          |   0.0 |  0.00
Comm    | 0.00034349 | 0.00034349 | 0.00034349 |   0.0 |  3.15
Output  | 0          | 0          | 0          |   0.0 |  0.00
Modify  | 0          | 0          | 0          |   0.0 |  0.00
Other   |            | 0.0001725  |            |       |  1.58

Nlocal:             36 ave          36 max          36 min
Histogram: 1 0 0 0 0 0 0 0 0 0
Nghost:            543 ave         543 max         543 min
Histogram: 1 0 0 0 0 0 0 0 0 0
Neighs:           4140 ave        4140 max        4140 min
Histogram: 1 0 0 0 0 0 0 0 0 0

Total # of neighbors = 4140
Ave neighs/atom = 115
Neighbor list builds = 0
Dangerous builds = 0

# ---- 4. Define and print useful variables -------------
variable natoms equal "count(all)"
variable totenergy equal "pe"
variable length equal "lx"

print "Total energy (eV) = ${totenergy}"
Total energy (eV) = -121.074706641975
print "Number of atoms = ${natoms}"
Number of atoms = 36
print "Lattice constant (Angstoms) = ${length}"
Lattice constant (Angstoms) = 8.65849758507688
Total wall time: 0:00:00
