
     Program PWSCF v.7.4.1 starts on 20Oct2025 at 17:53:11 

     This program is part of the open-source Quantum ESPRESSO suite
     for quantum simulation of materials; please cite
         "P. Giannozzi et al., J. Phys.:Condens. Matter 21 395502 (2009);
         "P. Giannozzi et al., J. Phys.:Condens. Matter 29 465901 (2017);
         "P. Giannozzi et al., J. Chem. Phys. 152 154105 (2020);
          URL http://www.quantum-espresso.org", 
     in publications or presentations arising from this work. More details at
     http://www.quantum-espresso.org/quote

     Parallel version (MPI), running on     2 processors

     MPI processes distributed on     1 nodes
     305 MiB available memory on the printing compute node when the environment starts

     Waiting for input...
     Reading input from standard input

     Current dimensions of program PWSCF are:
     Max number of different atomic species (ntypx) = 10
     Max number of k-points (npk) =  40000
     Max angular momentum in pseudopotentials (lmaxx) =  4
     file Fe.pbe-nd-rrkjus.UPF: wavefunction(s)  4S renormalized
     Message from routine find_sym:
     Not a group! Trying with lower acceptance parameter...
     Message from routine find_sym:
     Symmetry operations form a group
     Message from routine setup:
     using ibrav=0 with symmetry is DISCOURAGED, use correct ibrav instead

     R & G space division:  proc/nbgrp/npool/nimage =       2
     Subspace diagonalization in iterative solution of the eigenvalue problem:
     a serial algorithm will be used


     Parallelization info
     --------------------
     sticks:   dense  smooth     PW     G-vecs:    dense   smooth      PW
     Min         273     105     36                 7823     1983     373
     Max         274     106     37                 7826     1986     374
     Sum         547     211     73                15649     3969     747

     Using Slab Decomposition



     bravais-lattice index     =            0
     lattice parameter (alat)  =       5.1023  a.u.
     unit-cell volume          =     178.9386 (a.u.)^3
     number of atoms/cell      =            2
     number of atomic types    =            1
     number of electrons       =        16.00
     number of Kohn-Sham states=           12
     kinetic-energy cutoff     =      30.0000  Ry
     charge density cutoff     =     300.0000  Ry
     scf convergence threshold =      1.0E-07
     mixing beta               =       0.5000
     number of iterations used =            8  plain     mixing
     energy convergence thresh.=      1.0E-04
     force convergence thresh. =      1.0E-03
     press convergence thresh. =      5.0E-01
     Exchange-correlation=  SLA  PW   PBE  PBE
                           (   1   4   3   4   0   0   0)
     nstep                     =           50


     celldm(1)=   5.102261  celldm(2)=   0.000000  celldm(3)=   0.000000
     celldm(4)=   0.000000  celldm(5)=   0.000000  celldm(6)=   0.000000

     crystal axes: (cart. coord. in units of alat)
               a(1) = (   1.000000   0.000000   0.000000 )  
               a(2) = (  -0.500000   0.866025   0.000000 )  
               a(3) = (   0.000000   0.000000   1.555556 )  

     reciprocal axes: (cart. coord. in units 2 pi/alat)
               b(1) = (  1.000000  0.577350 -0.000000 )  
               b(2) = (  0.000000  1.154701  0.000000 )  
               b(3) = (  0.000000 -0.000000  0.642857 )  


     PseudoPot. # 1 for Fe read from file:
     /home/bond/Software/QE/qe-7.4.1/pseudo/Fe.pbe-nd-rrkjus.UPF
     MD5 check sum: 398036227a04b607635f6f5e8dfd8242
     Pseudo is Ultrasoft + core correction, Zval =  8.0
     Generated by new atomic code, or converted to UPF format
     Using radial grid of  957 points,  6 beta functions with: 
                l(1) =   0
                l(2) =   0
                l(3) =   1
                l(4) =   1
                l(5) =   2
                l(6) =   2
     Q(r) pseudized with 0 coefficients 


     atomic species   valence    mass     pseudopotential
     Fe                8.00    55.84500     Fe( 1.00)

     Starting magnetic structure 
     atomic species   magnetization
     Fe              0.700

      4 Sym. Ops. (no inversion) found



   Cartesian axes

     site n.     atom                  positions (alat units)
         1        Fe     tau(   1) = (   0.0000000   0.0000000   0.0000000  )
         2        Fe     tau(   2) = (   0.0000000   0.5773519   0.7777778  )

     number of k points=    32  Methfessel-Paxton smearing, width (Ry)=  0.0200
                       cart. coord. in units 2pi/alat
        k(    1) = (   0.0000000   0.0000000   0.0000000), wk =   0.0068027
        k(    2) = (   0.0000000   0.0000000   0.2142857), wk =   0.0136054
        k(    3) = (   0.0000000   0.1649572   0.0000000), wk =   0.0136054
        k(    4) = (   0.0000000   0.1649572   0.2142857), wk =   0.0272109
        k(    5) = (   0.0000000   0.3299144   0.0000000), wk =   0.0136054
        k(    6) = (   0.0000000   0.3299144   0.2142857), wk =   0.0272109
        k(    7) = (   0.0000000   0.4948717   0.0000000), wk =   0.0136054
        k(    8) = (   0.0000000   0.4948717   0.2142857), wk =   0.0272109
        k(    9) = (   0.1428571   0.2474358   0.0000000), wk =   0.0272109
        k(   10) = (   0.1428571   0.2474358   0.2142857), wk =   0.0544218
        k(   11) = (   0.1428571   0.4123930   0.0000000), wk =   0.0272109
        k(   12) = (   0.1428571   0.4123930   0.2142857), wk =   0.0544218
        k(   13) = (   0.1428571   0.5773503   0.0000000), wk =   0.0136054
        k(   14) = (   0.1428571   0.5773503   0.2142857), wk =   0.0272109
        k(   15) = (   0.2857143   0.4948717   0.0000000), wk =   0.0272109
        k(   16) = (   0.2857143   0.4948717   0.2142857), wk =   0.0544218
        k(   17) = (   0.1428571  -0.0824786   0.0000000), wk =   0.0272109
        k(   18) = (   0.1428571  -0.0824786   0.2142857), wk =   0.0544218
        k(   19) = (   0.2857143  -0.1649572   0.0000000), wk =   0.0272109
        k(   20) = (   0.2857143  -0.1649572   0.2142857), wk =   0.0544218
        k(   21) = (   0.4285714  -0.2474358   0.0000000), wk =   0.0272109
        k(   22) = (   0.4285714  -0.2474358   0.2142857), wk =   0.0544218
        k(   23) = (   0.2857143   0.0000000   0.0000000), wk =   0.0136054
        k(   24) = (   0.2857143   0.0000000  -0.2142857), wk =   0.0272109
        k(   25) = (   0.2857143  -0.3299144   0.0000000), wk =   0.0272109
        k(   26) = (   0.4285714  -0.0824786   0.0000000), wk =   0.0272109
        k(   27) = (   0.2857143  -0.3299144   0.2142857), wk =   0.0544218
        k(   28) = (   0.4285714  -0.0824786  -0.2142857), wk =   0.0544218
        k(   29) = (   0.4285714  -0.4123930   0.0000000), wk =   0.0272109
        k(   30) = (   0.4285714  -0.4123930   0.2142857), wk =   0.0544218
        k(   31) = (   0.5714286   0.0000000   0.0000000), wk =   0.0136054
        k(   32) = (   0.5714286   0.0000000  -0.2142857), wk =   0.0272109

     Dense  grid:    15649 G-vectors     FFT dimensions: (  30,  30,  45)

     Smooth grid:     3969 G-vectors     FFT dimensions: (  18,  18,  27)

     Estimated max dynamical RAM per process >      37.86 MB

     Estimated total dynamical RAM >      75.72 MB

     Check: negative core charge=   -0.000008
     Generating pointlists ...
     new r_m :   0.3996 (alat units)  2.0387 (a.u.) for type    1

     Initial potential from superposition of free atoms

     starting charge      15.9987, renormalised to      16.0000
     Starting wfcs are   12 randomized atomic wfcs

     total cpu time spent up to now is        0.7 secs

     Self-consistent Calculation

     iteration #  1     ecut=    30.00 Ry     beta= 0.50
     Davidson diagonalization with overlap
     ethr =  1.00E-02,  avg # of iterations =  3.8

     total cpu time spent up to now is        1.3 secs

     total energy              =    -111.33183509 Ry
     estimated scf accuracy    <       0.56110371 Ry

     total magnetization       =     7.01 Bohr mag/cell
     absolute magnetization    =     7.01 Bohr mag/cell

     iteration #  2     ecut=    30.00 Ry     beta= 0.50
     Davidson diagonalization with overlap
     ethr =  3.51E-03,  avg # of iterations =  2.2

     total cpu time spent up to now is        1.7 secs

     total energy              =    -111.52938311 Ry
     estimated scf accuracy    <       0.07070833 Ry

     total magnetization       =     6.03 Bohr mag/cell
     absolute magnetization    =     6.06 Bohr mag/cell

     iteration #  3     ecut=    30.00 Ry     beta= 0.50
     Davidson diagonalization with overlap
     ethr =  4.42E-04,  avg # of iterations =  2.0

     total cpu time spent up to now is        2.1 secs

     total energy              =    -111.56400328 Ry
     estimated scf accuracy    <       0.01169446 Ry

     total magnetization       =     5.97 Bohr mag/cell
     absolute magnetization    =     6.04 Bohr mag/cell

     iteration #  4     ecut=    30.00 Ry     beta= 0.50
     Davidson diagonalization with overlap
     ethr =  7.31E-05,  avg # of iterations =  2.4

     total cpu time spent up to now is        2.6 secs

     total energy              =    -111.57038053 Ry
     estimated scf accuracy    <       0.01041944 Ry

     total magnetization       =     5.71 Bohr mag/cell
     absolute magnetization    =     5.90 Bohr mag/cell

     iteration #  5     ecut=    30.00 Ry     beta= 0.50
     Davidson diagonalization with overlap
     ethr =  6.51E-05,  avg # of iterations =  1.0

     total cpu time spent up to now is        3.0 secs

     total energy              =    -111.57049438 Ry
     estimated scf accuracy    <       0.00187968 Ry

     total magnetization       =     5.71 Bohr mag/cell
     absolute magnetization    =     5.90 Bohr mag/cell

     iteration #  6     ecut=    30.00 Ry     beta= 0.50
     Davidson diagonalization with overlap
     ethr =  1.17E-05,  avg # of iterations =  1.5

     total cpu time spent up to now is        3.4 secs

     total energy              =    -111.57056746 Ry
     estimated scf accuracy    <       0.00039930 Ry

     total magnetization       =     5.71 Bohr mag/cell
     absolute magnetization    =     5.91 Bohr mag/cell

     iteration #  7     ecut=    30.00 Ry     beta= 0.50
     Davidson diagonalization with overlap
     ethr =  2.50E-06,  avg # of iterations =  2.9

     total cpu time spent up to now is        3.9 secs

     total energy              =    -111.57079288 Ry
     estimated scf accuracy    <       0.00004867 Ry

     total magnetization       =     5.71 Bohr mag/cell
     absolute magnetization    =     5.92 Bohr mag/cell

     iteration #  8     ecut=    30.00 Ry     beta= 0.50
     Davidson diagonalization with overlap
     ethr =  3.04E-07,  avg # of iterations =  4.7

     total cpu time spent up to now is        4.5 secs

     total energy              =    -111.57078446 Ry
     estimated scf accuracy    <       0.00012369 Ry

     total magnetization       =     5.71 Bohr mag/cell
     absolute magnetization    =     5.92 Bohr mag/cell

     iteration #  9     ecut=    30.00 Ry     beta= 0.50
     Davidson diagonalization with overlap
     ethr =  3.04E-07,  avg # of iterations =  3.0

     total cpu time spent up to now is        5.0 secs

     total energy              =    -111.57080766 Ry
     estimated scf accuracy    <       0.00000422 Ry

     total magnetization       =     5.71 Bohr mag/cell
     absolute magnetization    =     5.93 Bohr mag/cell

     iteration # 10     ecut=    30.00 Ry     beta= 0.50
     Davidson diagonalization with overlap
     ethr =  2.64E-08,  avg # of iterations =  5.3

     total cpu time spent up to now is        5.6 secs

     total energy              =    -111.57081097 Ry
     estimated scf accuracy    <       0.00000333 Ry

     total magnetization       =     5.71 Bohr mag/cell
     absolute magnetization    =     5.93 Bohr mag/cell

     iteration # 11     ecut=    30.00 Ry     beta= 0.50
     Davidson diagonalization with overlap
     ethr =  2.08E-08,  avg # of iterations =  1.0

     total cpu time spent up to now is        6.0 secs

     total energy              =    -111.57081038 Ry
     estimated scf accuracy    <       0.00000212 Ry

     total magnetization       =     5.71 Bohr mag/cell
     absolute magnetization    =     5.93 Bohr mag/cell

     iteration # 12     ecut=    30.00 Ry     beta= 0.50
     Davidson diagonalization with overlap
     ethr =  1.32E-08,  avg # of iterations =  2.0

     total cpu time spent up to now is        6.4 secs

     total energy              =    -111.57081071 Ry
     estimated scf accuracy    <       0.00000015 Ry

     total magnetization       =     5.71 Bohr mag/cell
     absolute magnetization    =     5.93 Bohr mag/cell

     iteration # 13     ecut=    30.00 Ry     beta= 0.50
     Davidson diagonalization with overlap
     ethr =  9.26E-10,  avg # of iterations =  5.6

     Magnetic moment per site  (integrated on atomic sphere of radius R)
     atom   1 (R=0.400)  charge=  6.6229  magn=  2.8912
     atom   2 (R=0.400)  charge=  6.6224  magn=  2.8911

     total cpu time spent up to now is        7.1 secs

     End of self-consistent calculation

 ------ SPIN UP ------------


          k = 0.0000 0.0000 0.0000 (   523 PWs)   bands (ev):

     3.3984   6.7220   8.6560   8.6560   8.9494   8.9494   9.0182   9.1978
     9.1978  10.2559  10.2559  11.7220

          k = 0.0000 0.0000 0.2143 (   512 PWs)   bands (ev):

     4.3951   6.3700   8.5239   8.5239   8.7146   8.7146   8.8049   9.2881
     9.6788   9.6788  10.1659  10.1659

          k = 0.0000 0.1650 0.0000 (   505 PWs)   bands (ev):

     4.0021   7.0333   8.3552   8.8332   8.8489   8.9171   9.0399   9.1735
     9.2828   9.4379  10.3284  13.3691

          k = 0.0000 0.1650 0.2143 (   502 PWs)   bands (ev):

     4.9470   6.8043   8.2496   8.3676   8.6981   8.7148   8.9263   9.0312
     9.6346   9.8198  10.1798  10.9675

          k = 0.0000 0.3299 0.0000 (   488 PWs)   bands (ev):

     5.5695   7.3051   7.8819   8.1917   8.7437   8.8780   9.1250   9.5482
     9.7152   9.8713  10.4340  16.0581

          k = 0.0000 0.3299 0.2143 (   501 PWs)   bands (ev):

     6.1747   7.2609   7.7945   8.2385   8.7301   8.9558   9.2120   9.4384
     9.7705  10.1314  10.2032  12.2601

          k = 0.0000 0.4949 0.0000 (   492 PWs)   bands (ev):

     6.7952   7.0456   7.3388   8.5387   8.7483   8.9727   9.2256  10.0816
    10.2290  10.4881  11.2903  15.0929

          k = 0.0000 0.4949 0.2143 (   495 PWs)   bands (ev):

     6.6461   7.0282   7.7714   8.0126   8.9349   9.4205   9.8239  10.1594
    10.2746  10.4405  11.0999  13.5464

          k = 0.1429 0.2474 0.0000 (   503 PWs)   bands (ev):

     5.1135   7.4350   7.9881   8.1546   8.7331   8.7860   9.2426   9.4312
     9.4510   9.7834  10.3844  15.3016

          k = 0.1429 0.2474 0.2143 (   503 PWs)   bands (ev):

     5.8898   7.3981   7.8333   8.1246   8.6063   8.8138   8.9445   9.3169
     9.8382   9.9708  10.2784  11.9213

          k = 0.1429 0.4124 0.0000 (   496 PWs)   bands (ev):

     6.6989   7.3745   7.5220   8.0355   8.5269   9.0090   9.0336   9.8551
    10.1166  10.4253  10.8508  17.4535

          k = 0.1429 0.4124 0.2143 (   495 PWs)   bands (ev):

     6.8380   7.3307   7.7474   8.2203   8.6209   8.9337   9.1905   9.6690
    10.1490  10.3731  11.1361  13.5367

          k = 0.1429 0.5774 0.0000 (   486 PWs)   bands (ev):

     7.1648   7.2026   7.2951   8.4834   8.4852   8.8680   9.2671  10.2174
    10.3119  10.4390  12.7684  14.0981

          k = 0.1429 0.5774 0.2143 (   488 PWs)   bands (ev):

     6.9009   7.2608   7.8007   8.1431   8.5082   9.4161   9.4635   9.7857
    10.2485  10.4980  13.1797  13.9837

          k = 0.2857 0.4949 0.0000 (   494 PWs)   bands (ev):

     7.3330   7.4879   7.6767   7.8142   8.4863   8.7493   9.2444  10.0796
    10.3543  10.3845  12.9925  16.5576

          k = 0.2857 0.4949 0.2143 (   495 PWs)   bands (ev):

     7.4208   7.5314   7.8465   8.0619   8.4384   8.6697   9.1963   9.6724
    10.2457  10.4480  13.7052  15.7484

          k = 0.1429-0.0825 0.0000 (   505 PWs)   bands (ev):

     4.0021   7.0333   8.3552   8.8332   8.8489   8.9171   9.0400   9.1735
     9.2828   9.4379  10.3284  13.3691

          k = 0.1429-0.0825 0.2143 (   502 PWs)   bands (ev):

     4.9470   6.8043   8.2496   8.3676   8.6981   8.7148   8.9263   9.0312
     9.6346   9.8198  10.1798  10.9675

          k = 0.2857-0.1650 0.0000 (   488 PWs)   bands (ev):

     5.5695   7.3052   7.8819   8.1917   8.7437   8.8780   9.1250   9.5482
     9.7152   9.8713  10.4340  16.0581

          k = 0.2857-0.1650 0.2143 (   501 PWs)   bands (ev):

     6.1747   7.2609   7.7945   8.2385   8.7301   8.9558   9.2120   9.4384
     9.7706  10.1314  10.2032  12.2601

          k = 0.4286-0.2474 0.0000 (   492 PWs)   bands (ev):

     6.7952   7.0456   7.3388   8.5387   8.7483   8.9727   9.2256  10.0816
    10.2290  10.4881  11.2903  15.0929

          k = 0.4286-0.2474 0.2143 (   495 PWs)   bands (ev):

     6.6461   7.0282   7.7714   8.0126   8.9349   9.4205   9.8239  10.1594
    10.2746  10.4405  11.0999  13.5464

          k = 0.2857 0.0000 0.0000 (   503 PWs)   bands (ev):

     5.1135   7.4350   7.9881   8.1547   8.7331   8.7860   9.2426   9.4311
     9.4510   9.7834  10.3844  15.3016

          k = 0.2857 0.0000-0.2143 (   503 PWs)   bands (ev):

     5.8898   7.3981   7.8333   8.1246   8.6063   8.8138   8.9445   9.3169
     9.8382   9.9708  10.2784  11.9213

          k = 0.2857-0.3299 0.0000 (   496 PWs)   bands (ev):

     6.6989   7.3745   7.5220   8.0355   8.5269   9.0090   9.0336   9.8551
    10.1166  10.4253  10.8508  17.4534

          k = 0.4286-0.0825 0.0000 (   496 PWs)   bands (ev):

     6.6989   7.3745   7.5220   8.0355   8.5269   9.0090   9.0336   9.8551
    10.1166  10.4253  10.8508  17.4534

          k = 0.2857-0.3299 0.2143 (   495 PWs)   bands (ev):

     6.8380   7.3307   7.7474   8.2203   8.6209   8.9337   9.1905   9.6690
    10.1490  10.3731  11.1361  13.5367

          k = 0.4286-0.0825-0.2143 (   495 PWs)   bands (ev):

     6.8380   7.3307   7.7474   8.2203   8.6209   8.9337   9.1905   9.6690
    10.1490  10.3731  11.1361  13.5367

          k = 0.4286-0.4124 0.0000 (   486 PWs)   bands (ev):

     7.1648   7.2026   7.2951   8.4834   8.4852   8.8680   9.2671  10.2174
    10.3119  10.4390  12.7684  14.0980

          k = 0.4286-0.4124 0.2143 (   488 PWs)   bands (ev):

     6.9009   7.2608   7.8007   8.1431   8.5082   9.4161   9.4635   9.7857
    10.2485  10.4980  13.1797  13.9837

          k = 0.5714 0.0000 0.0000 (   494 PWs)   bands (ev):

     7.3330   7.4879   7.6767   7.8142   8.4863   8.7493   9.2444  10.0796
    10.3543  10.3845  12.9925  16.5576

          k = 0.5714 0.0000-0.2143 (   495 PWs)   bands (ev):

     7.4208   7.5314   7.8465   8.0619   8.4384   8.6697   9.1963   9.6724
    10.2457  10.4480  13.7052  15.7484

 ------ SPIN DOWN ----------


          k = 0.0000 0.0000 0.0000 (   523 PWs)   bands (ev):

     3.6395   8.4728  11.6851  11.6851  11.8145  11.8535  12.0821  12.0821
    12.3378  12.3378  13.6008  13.6008

          k = 0.0000 0.0000 0.2143 (   512 PWs)   bands (ev):

     4.6589   7.1643  11.0369  11.4841  11.5217  11.5217  11.7684  11.7684
    12.9369  12.9369  13.5253  13.5253

          k = 0.0000 0.1650 0.0000 (   505 PWs)   bands (ev):

     4.2465   8.8683  10.9597  11.1834  11.8914  12.0004  12.1281  12.1776
    12.2345  12.3512  13.6996  15.0175

          k = 0.0000 0.1650 0.2143 (   502 PWs)   bands (ev):

     5.2298   7.6435  10.6206  11.2386  11.4327  11.7416  11.7945  12.0091
    12.8852  12.9848  13.5453  13.9042

          k = 0.0000 0.3299 0.0000 (   488 PWs)   bands (ev):

     5.9175   9.4973  10.0462  10.5526  11.7116  11.7429  11.8970  12.7904
    12.8831  13.0093  13.8382  17.4593

          k = 0.0000 0.3299 0.2143 (   501 PWs)   bands (ev):

     6.7370   8.6367  10.1759  10.7280  11.3291  11.7470  11.9926  12.6037
    13.0822  13.2335  13.5861  14.6468

          k = 0.0000 0.4949 0.0000 (   492 PWs)   bands (ev):

     7.9776   9.3322   9.5879  10.1662  11.4802  11.6780  12.0019  13.4911
    13.6611  13.9067  14.0226  16.7958

          k = 0.0000 0.4949 0.2143 (   495 PWs)   bands (ev):

     8.2646   8.9576  10.0420  10.3756  11.7432  11.9459  12.2542  13.0538
    13.5760  13.6858  13.7146  15.1301

          k = 0.1429 0.2474 0.0000 (   503 PWs)   bands (ev):

     5.3935   9.4385  10.2811  10.6317  11.6800  11.7261  12.1127  12.4759
    12.6157  12.9533  13.7720  16.7837

          k = 0.1429 0.2474 0.2143 (   503 PWs)   bands (ev):

     6.2839   8.4277  10.2712  10.8155  11.3157  11.6325  11.9840  12.3844
    13.0622  13.1488  13.5930  14.4736

          k = 0.1429 0.4124 0.0000 (   496 PWs)   bands (ev):

     7.3421   9.6791   9.7744  10.1391  11.3759  11.7948  11.8863  13.0079
    13.4170  13.8243  13.8749  18.7311

          k = 0.1429 0.4124 0.2143 (   495 PWs)   bands (ev):

     7.9358   9.1468  10.1145  10.4784  11.2453  11.4667  12.0522  12.8069
    13.3556  13.6968  14.0402  15.3625

          k = 0.1429 0.5774 0.0000 (   486 PWs)   bands (ev):

     8.7862   9.3829   9.6065   9.9184  11.3434  11.5554  12.1401  13.5618
    13.6417  13.8414  14.9424  16.1080

          k = 0.1429 0.5774 0.2143 (   488 PWs)   bands (ev):

     8.8337   9.2280  10.1200  10.3335  11.1762  11.6510  12.2945  13.0210
    13.5425  13.7671  14.9055  15.7011

          k = 0.2857 0.4949 0.0000 (   494 PWs)   bands (ev):

     8.9777   9.7110   9.7312   9.7618  11.2180  11.4623  12.2529  13.2545
    13.6510  13.7707  15.2364  17.8371

          k = 0.2857 0.4949 0.2143 (   495 PWs)   bands (ev):

     9.2995   9.6087  10.0462  10.3177  10.8851  11.0654  12.2361  12.8831
    13.4108  13.7214  15.7193  17.0708

          k = 0.1429-0.0825 0.0000 (   505 PWs)   bands (ev):

     4.2465   8.8683  10.9597  11.1834  11.8914  12.0004  12.1281  12.1776
    12.2345  12.3512  13.6996  15.0175

          k = 0.1429-0.0825 0.2143 (   502 PWs)   bands (ev):

     5.2298   7.6435  10.6206  11.2386  11.4327  11.7416  11.7945  12.0091
    12.8852  12.9848  13.5453  13.9042

          k = 0.2857-0.1650 0.0000 (   488 PWs)   bands (ev):

     5.9175   9.4973  10.0462  10.5526  11.7116  11.7429  11.8970  12.7904
    12.8831  13.0093  13.8382  17.4593

          k = 0.2857-0.1650 0.2143 (   501 PWs)   bands (ev):

     6.7370   8.6367  10.1759  10.7280  11.3291  11.7470  11.9926  12.6037
    13.0822  13.2335  13.5861  14.6468

          k = 0.4286-0.2474 0.0000 (   492 PWs)   bands (ev):

     7.9776   9.3322   9.5879  10.1662  11.4802  11.6780  12.0019  13.4911
    13.6611  13.9067  14.0226  16.7958

          k = 0.4286-0.2474 0.2143 (   495 PWs)   bands (ev):

     8.2646   8.9576  10.0420  10.3756  11.7432  11.9460  12.2542  13.0538
    13.5760  13.6858  13.7146  15.1301

          k = 0.2857 0.0000 0.0000 (   503 PWs)   bands (ev):

     5.3935   9.4385  10.2811  10.6317  11.6800  11.7261  12.1127  12.4759
    12.6157  12.9533  13.7720  16.7837

          k = 0.2857 0.0000-0.2143 (   503 PWs)   bands (ev):

     6.2839   8.4277  10.2712  10.8155  11.3157  11.6325  11.9840  12.3844
    13.0622  13.1488  13.5930  14.4736

          k = 0.2857-0.3299 0.0000 (   496 PWs)   bands (ev):

     7.3421   9.6791   9.7744  10.1391  11.3759  11.7947  11.8863  13.0079
    13.4170  13.8243  13.8749  18.7311

          k = 0.4286-0.0825 0.0000 (   496 PWs)   bands (ev):

     7.3421   9.6791   9.7744  10.1391  11.3759  11.7948  11.8863  13.0079
    13.4170  13.8243  13.8749  18.7312

          k = 0.2857-0.3299 0.2143 (   495 PWs)   bands (ev):

     7.9358   9.1468  10.1146  10.4784  11.2452  11.4667  12.0522  12.8069
    13.3556  13.6968  14.0402  15.3625

          k = 0.4286-0.0825-0.2143 (   495 PWs)   bands (ev):

     7.9358   9.1468  10.1146  10.4784  11.2452  11.4667  12.0522  12.8069
    13.3556  13.6968  14.0402  15.3625

          k = 0.4286-0.4124 0.0000 (   486 PWs)   bands (ev):

     8.7862   9.3829   9.6065   9.9184  11.3434  11.5554  12.1401  13.5618
    13.6417  13.8414  14.9424  16.1080

          k = 0.4286-0.4124 0.2143 (   488 PWs)   bands (ev):

     8.8337   9.2280  10.1200  10.3335  11.1762  11.6510  12.2945  13.0210
    13.5425  13.7671  14.9055  15.7011

          k = 0.5714 0.0000 0.0000 (   494 PWs)   bands (ev):

     8.9777   9.7110   9.7312   9.7618  11.2180  11.4623  12.2529  13.2545
    13.6510  13.7707  15.2364  17.8369

          k = 0.5714 0.0000-0.2143 (   495 PWs)   bands (ev):

     9.2995   9.6087  10.0462  10.3177  10.8851  11.0654  12.2361  12.8831
    13.4108  13.7214  15.7193  17.0707

     the Fermi energy is    11.5842 ev

!    total energy              =    -111.57081087 Ry
     estimated scf accuracy    <          7.0E-09 Ry
     smearing contrib. (-TS)   =       0.00050827 Ry
     internal energy E=F+TS    =    -111.57131914 Ry

     The total energy is F=E-TS. E is the sum of the following terms:
     one-electron contribution =       9.13170791 Ry
     hartree contribution      =      14.76931765 Ry
     xc contribution           =     -52.84398064 Ry
     ewald contribution        =     -82.62836405 Ry

     total magnetization       =     5.71 Bohr mag/cell
     absolute magnetization    =     5.93 Bohr mag/cell

     convergence has been achieved in  13 iterations

     Forces acting on atoms (cartesian axes, Ry/au):

     atom    1 type  1   force =     0.00000000   -0.00000468    0.00000000
     atom    2 type  1   force =     0.00000000    0.00000468    0.00000000

     Total force =     0.000007     Total SCF correction =     0.000007
     SCF correction compared to forces is large: reduce conv_thr to get better values


     Computing stress (Cartesian axis) and pressure

          total   stress  (Ry/bohr**3)                   (kbar)     P=      -89.99
  -0.00078770   0.00000000   0.00000000         -115.87        0.00        0.00
   0.00000000  -0.00078773   0.00000000            0.00     -115.88        0.00
   0.00000000   0.00000000  -0.00025977            0.00        0.00      -38.21


     BFGS Geometry Optimization
     Energy error            =      6.1E-03 Ry
     Gradient error          =      4.7E-06 Ry/Bohr
     Cell gradient error     =      1.2E+02 kbar

     number of scf cycles    =   1
     number of bfgs steps    =   0

     enthalpy           new  =    -111.5708108718 Ry

     new trust radius        =       0.0526864063 bohr
     new conv_thr            =       0.0000001000 Ry

     new unit-cell volume =    170.84363 a.u.^3 (    25.31641 Ang^3 )
     density =      7.32590 g/cm^3

CELL_PARAMETERS (angstrom)
   2.646830115   0.000000000   0.000000000
  -1.323415057   2.292220571   0.000000000
   0.000000000   0.000000000   4.172724455

ATOMIC_POSITIONS (angstrom)
Fe               0.0000000000       -0.0000024300        0.0000000000
Fe               0.0000000000        1.5281536665        2.0863622275


     Message from routine punch:
     Nothing written, as per user request (disk_io='none')
     NEW-OLD atomic charge density approx. for the potential
     New effective cutoffs (rho, wfc):  312.03   31.22

     Check: negative core charge=   -0.000005
     Generating pointlists ...
     new r_m :   0.3951 (alat units)  2.0159 (a.u.) for type    1

     total cpu time spent up to now is        7.6 secs

     Self-consistent Calculation

     iteration #  1     ecut=    30.00 Ry     beta= 0.50
     Davidson diagonalization with overlap
     ethr =  1.00E-06,  avg # of iterations =  6.1

     total cpu time spent up to now is        8.4 secs

     total energy              =    -111.57471051 Ry
     estimated scf accuracy    <       0.00016079 Ry

     total magnetization       =     5.71 Bohr mag/cell
     absolute magnetization    =     5.90 Bohr mag/cell

     iteration #  2     ecut=    30.00 Ry     beta= 0.50
     Davidson diagonalization with overlap
     ethr =  1.00E-06,  avg # of iterations =  1.5

     total cpu time spent up to now is        8.8 secs

     total energy              =    -111.57472033 Ry
     estimated scf accuracy    <       0.00011454 Ry

     total magnetization       =     5.71 Bohr mag/cell
     absolute magnetization    =     5.90 Bohr mag/cell

     iteration #  3     ecut=    30.00 Ry     beta= 0.50
     Davidson diagonalization with overlap
     ethr =  7.16E-07,  avg # of iterations =  1.9

     total cpu time spent up to now is        9.2 secs

     total energy              =    -111.57469320 Ry
     estimated scf accuracy    <       0.00152857 Ry

     total magnetization       =     5.71 Bohr mag/cell
     absolute magnetization    =     5.89 Bohr mag/cell

     iteration #  4     ecut=    30.00 Ry     beta= 0.50
     Davidson diagonalization with overlap
     ethr =  7.16E-07,  avg # of iterations =  1.6

     total cpu time spent up to now is        9.6 secs

     total energy              =    -111.57478263 Ry
     estimated scf accuracy    <       0.00001107 Ry

     total magnetization       =     5.71 Bohr mag/cell
     absolute magnetization    =     5.89 Bohr mag/cell

     iteration #  5     ecut=    30.00 Ry     beta= 0.50
     Davidson diagonalization with overlap
     ethr =  6.92E-08,  avg # of iterations =  2.4

     total cpu time spent up to now is       10.0 secs

     total energy              =    -111.57478782 Ry
     estimated scf accuracy    <       0.00000165 Ry

     total magnetization       =     5.70 Bohr mag/cell
     absolute magnetization    =     5.88 Bohr mag/cell

     iteration #  6     ecut=    30.00 Ry     beta= 0.50
     Davidson diagonalization with overlap
     ethr =  1.03E-08,  avg # of iterations =  3.3

     total cpu time spent up to now is       10.5 secs

     total energy              =    -111.57478897 Ry
     estimated scf accuracy    <       0.00000135 Ry

     total magnetization       =     5.70 Bohr mag/cell
     absolute magnetization    =     5.88 Bohr mag/cell

     iteration #  7     ecut=    30.00 Ry     beta= 0.50
     Davidson diagonalization with overlap
     ethr =  8.44E-09,  avg # of iterations =  1.3

     total cpu time spent up to now is       10.9 secs

     total energy              =    -111.57478916 Ry
     estimated scf accuracy    <       0.00000010 Ry

     total magnetization       =     5.70 Bohr mag/cell
     absolute magnetization    =     5.88 Bohr mag/cell

     iteration #  8     ecut=    30.00 Ry     beta= 0.50
     Davidson diagonalization with overlap
     ethr =  6.31E-10,  avg # of iterations =  4.9

     Magnetic moment per site  (integrated on atomic sphere of radius R)
     atom   1 (R=0.395)  charge=  6.6160  magn=  2.8738
     atom   2 (R=0.395)  charge=  6.6156  magn=  2.8738

     total cpu time spent up to now is       11.5 secs

     End of self-consistent calculation

 ------ SPIN UP ------------


          k = 0.0000 0.0000 0.0000 (   523 PWs)   bands (ev):

     3.8526   7.2390   9.3363   9.3363   9.6408   9.6408   9.6409   9.9265
     9.9265  11.0148  11.0148  12.2727

          k = 0.0000 0.0000 0.2157 (   512 PWs)   bands (ev):

     4.8649   6.8673   9.2075   9.2075   9.4026   9.4026   9.4203   9.8942
    10.4153  10.4153  10.9188  10.9188

          k = 0.0000 0.1683 0.0000 (   505 PWs)   bands (ev):

     4.4834   7.5784   9.0035   9.4931   9.5206   9.6210   9.7563   9.8876
     9.9391  10.1057  11.0898  14.0775

          k = 0.0000 0.1683 0.2157 (   502 PWs)   bands (ev):

     5.4405   7.3274   8.8697   9.0300   9.3215   9.4174   9.6340   9.6818
    10.3676  10.5503  10.9333  11.7326

          k = 0.0000 0.3365 0.0000 (   488 PWs)   bands (ev):

     6.1086   7.8741   8.4448   8.8323   9.4378   9.5249   9.7807  10.3120
    10.4847  10.5957  11.1961  16.8825

          k = 0.0000 0.3365 0.2157 (   501 PWs)   bands (ev):

     6.7047   7.8016   8.3803   8.8562   9.3829   9.6693   9.8900  10.1878
    10.5342  10.8741  10.9649  13.0568

          k = 0.0000 0.5048 0.0000 (   492 PWs)   bands (ev):

     7.3447   7.5951   7.8656   9.2175   9.4165   9.6032   9.8927  10.9017
    11.0490  11.2485  12.1286  16.0916

          k = 0.0000 0.5048 0.2157 (   495 PWs)   bands (ev):

     7.1638   7.5582   8.3462   8.5907   9.6337  10.1219  10.5752  10.9753
    11.0844  11.2291  11.8472  14.3727

          k = 0.1457 0.2524 0.0000 (   503 PWs)   bands (ev):

     5.6403   8.0197   8.6073   8.7409   9.4056   9.4416   9.9306  10.1208
    10.2019  10.5364  11.1407  16.0988

          k = 0.1457 0.2524 0.2157 (   503 PWs)   bands (ev):

     6.4182   7.9473   8.4313   8.7575   9.2343   9.4580   9.6571  10.0533
    10.5945  10.7132  11.0359  12.7143

          k = 0.1457 0.4207 0.0000 (   496 PWs)   bands (ev):

     7.2732   7.9500   8.0689   8.6646   9.1791   9.6669   9.6967  10.5917
    10.9216  11.1745  11.6982  18.4548

          k = 0.1457 0.4207 0.2157 (   495 PWs)   bands (ev):

     7.3812   7.8757   8.3373   8.8321   9.2708   9.6147   9.8853  10.4000
    10.9149  11.1786  11.9656  14.3719

          k = 0.1457 0.5889 0.0000 (   486 PWs)   bands (ev):

     7.7192   7.7829   7.8296   9.1428   9.1432   9.4970   9.9452  11.0115
    11.1206  11.1852  13.6699  15.1118

          k = 0.1457 0.5889 0.2157 (   488 PWs)   bands (ev):

     7.4296   7.8096   8.3855   8.7368   9.1573  10.1199  10.1902  10.5300
    11.0395  11.2994  14.0291  14.9156

          k = 0.2915 0.5048 0.0000 (   494 PWs)   bands (ev):

     7.8839   8.0914   8.2886   8.4202   9.1143   9.3872   9.9312  10.8293
    11.1169  11.1521  13.9438  17.6432

          k = 0.2915 0.5048 0.2157 (   495 PWs)   bands (ev):

     7.9760   8.1090   8.4450   8.6762   9.0683   9.3182   9.8933  10.3889
    11.0193  11.2515  14.6473  16.6932

          k = 0.1457-0.0841 0.0000 (   505 PWs)   bands (ev):

     4.4834   7.5784   9.0035   9.4931   9.5206   9.6210   9.7563   9.8876
     9.9391  10.1057  11.0898  14.0775

          k = 0.1457-0.0841 0.2157 (   502 PWs)   bands (ev):

     5.4405   7.3274   8.8698   9.0300   9.3215   9.4174   9.6340   9.6818
    10.3676  10.5503  10.9333  11.7327

          k = 0.2915-0.1683 0.0000 (   488 PWs)   bands (ev):

     6.1086   7.8741   8.4448   8.8323   9.4378   9.5249   9.7807  10.3120
    10.4847  10.5957  11.1961  16.8825

          k = 0.2915-0.1683 0.2157 (   501 PWs)   bands (ev):

     6.7047   7.8016   8.3803   8.8562   9.3829   9.6693   9.8900  10.1878
    10.5342  10.8741  10.9649  13.0568

          k = 0.4372-0.2524 0.0000 (   492 PWs)   bands (ev):

     7.3447   7.5951   7.8657   9.2175   9.4164   9.6031   9.8927  10.9017
    11.0490  11.2484  12.1286  16.0916

          k = 0.4372-0.2524 0.2157 (   495 PWs)   bands (ev):

     7.1638   7.5582   8.3462   8.5907   9.6337  10.1219  10.5752  10.9753
    11.0844  11.2291  11.8472  14.3727

          k = 0.2915 0.0000 0.0000 (   503 PWs)   bands (ev):

     5.6403   8.0197   8.6073   8.7409   9.4056   9.4416   9.9306  10.1208
    10.2019  10.5364  11.1407  16.0988

          k = 0.2915 0.0000-0.2157 (   503 PWs)   bands (ev):

     6.4182   7.9473   8.4313   8.7575   9.2343   9.4580   9.6571  10.0533
    10.5945  10.7132  11.0359  12.7144

          k = 0.2915-0.3365 0.0000 (   496 PWs)   bands (ev):

     7.2732   7.9500   8.0689   8.6646   9.1791   9.6669   9.6967  10.5917
    10.9216  11.1745  11.6982  18.4548

          k = 0.4372-0.0841 0.0000 (   496 PWs)   bands (ev):

     7.2732   7.9500   8.0689   8.6646   9.1791   9.6669   9.6967  10.5917
    10.9216  11.1744  11.6982  18.4548

          k = 0.2915-0.3365 0.2157 (   495 PWs)   bands (ev):

     7.3812   7.8757   8.3373   8.8322   9.2708   9.6147   9.8853  10.4000
    10.9149  11.1786  11.9656  14.3719

          k = 0.4372-0.0841-0.2157 (   495 PWs)   bands (ev):

     7.3812   7.8757   8.3373   8.8322   9.2708   9.6147   9.8853  10.3999
    10.9149  11.1786  11.9656  14.3719

          k = 0.4372-0.4207 0.0000 (   486 PWs)   bands (ev):

     7.7192   7.7829   7.8296   9.1428   9.1432   9.4970   9.9452  11.0116
    11.1205  11.1852  13.6700  15.1118

          k = 0.4372-0.4207 0.2157 (   488 PWs)   bands (ev):

     7.4296   7.8096   8.3855   8.7368   9.1573  10.1199  10.1902  10.5300
    11.0395  11.2994  14.0291  14.9156

          k = 0.5829 0.0000 0.0000 (   494 PWs)   bands (ev):

     7.8839   8.0914   8.2886   8.4202   9.1143   9.3872   9.9312  10.8293
    11.1169  11.1520  13.9438  17.6432

          k = 0.5829 0.0000-0.2157 (   495 PWs)   bands (ev):

     7.9760   8.1090   8.4450   8.6762   9.0683   9.3182   9.8933  10.3889
    11.0193  11.2515  14.6473  16.6932

 ------ SPIN DOWN ----------


          k = 0.0000 0.0000 0.0000 (   523 PWs)   bands (ev):

     4.1335   8.9615  12.3439  12.3439  12.4141  12.4235  12.7490  12.7490
    13.0931  13.0931  14.3821  14.3821

          k = 0.0000 0.0000 0.2157 (   512 PWs)   bands (ev):

     5.1690   7.6858  11.6100  12.0467  12.1947  12.1947  12.4413  12.4414
    13.6870  13.6871  14.2926  14.2926

          k = 0.0000 0.1683 0.0000 (   505 PWs)   bands (ev):

     4.7682   9.3839  11.5440  11.8019  12.5314  12.6828  12.8494  12.8697
    12.9030  13.0417  14.4835  15.8367

          k = 0.0000 0.1683 0.2157 (   502 PWs)   bands (ev):

     5.7643   8.1871  11.1919  11.8852  12.0115  12.4379  12.4397  12.7043
    13.6245  13.7205  14.3117  14.6931

          k = 0.0000 0.3365 0.0000 (   488 PWs)   bands (ev):

     6.5029  10.0441  10.5920  11.1656  12.3180  12.4604  12.5709  13.5329
    13.5576  13.7575  14.6217  18.3629

          k = 0.0000 0.3365 0.2157 (   501 PWs)   bands (ev):

     7.3181   9.1959  10.7392  11.3465  11.9253  12.3881  12.7227  13.3487
    13.8321  13.9623  14.3529  15.4688

          k = 0.0000 0.5048 0.0000 (   492 PWs)   bands (ev):

     8.5861   9.8509  10.1117  10.8325  12.1815  12.3134  12.6172  14.2931
    14.4614  14.6874  14.8188  17.7868

          k = 0.0000 0.5048 0.2157 (   495 PWs)   bands (ev):

     8.8191   9.4884  10.6044  10.9668  12.3922  12.6674  12.9842  13.8195
    14.3753  14.4518  14.5120  15.9883

          k = 0.1457 0.2524 0.0000 (   503 PWs)   bands (ev):

     5.9624   9.9944  10.8388  11.2260  12.3505  12.3701  12.8347  13.1091
    13.3442  13.6891  14.5486  17.6668

          k = 0.1457 0.2524 0.2157 (   503 PWs)   bands (ev):

     6.8567   8.9968  10.8384  11.4292  11.9138  12.2550  12.7008  13.1127
    13.8080  13.8809  14.3564  15.2917

          k = 0.1457 0.4207 0.0000 (   496 PWs)   bands (ev):

     7.9661  10.2340  10.3126  10.7477  12.0381  12.4742  12.5048  13.6989
    14.1990  14.5916  14.6982  19.7525

          k = 0.1457 0.4207 0.2157 (   495 PWs)   bands (ev):

     8.5334   9.6962  10.6837  11.0942  11.8589  12.1169  12.7451  13.5487
    14.0961  14.4893  14.8618  16.2320

          k = 0.1457 0.5889 0.0000 (   486 PWs)   bands (ev):

     9.3925   9.9233  10.1390  10.5816  12.0196  12.1887  12.7671  14.3244
    14.4230  14.6048  15.8459  17.1092

          k = 0.1457 0.5889 0.2157 (   488 PWs)   bands (ev):

     9.3750   9.7837  10.6961  10.9466  11.7993  12.3374  12.9992  13.7673
    14.3088  14.5455  15.7945  16.6467

          k = 0.2915 0.5048 0.0000 (   494 PWs)   bands (ev):

     9.6148  10.2608  10.3343  10.3437  11.8555  12.1096  12.8969  13.9613
    14.4135  14.5177  16.1874  18.9475

          k = 0.2915 0.5048 0.2157 (   495 PWs)   bands (ev):

     9.9021  10.1635  10.6327  10.9307  11.5057  11.6964  12.9045  13.6047
    14.1595  14.5022  16.6783  18.0657

          k = 0.1457-0.0841 0.0000 (   505 PWs)   bands (ev):

     4.7682   9.3839  11.5440  11.8019  12.5314  12.6829  12.8494  12.8697
    12.9029  13.0417  14.4835  15.8367

          k = 0.1457-0.0841 0.2157 (   502 PWs)   bands (ev):

     5.7643   8.1871  11.1919  11.8852  12.0115  12.4379  12.4398  12.7043
    13.6245  13.7205  14.3117  14.6931

          k = 0.2915-0.1683 0.0000 (   488 PWs)   bands (ev):

     6.5029  10.0441  10.5920  11.1656  12.3180  12.4604  12.5708  13.5329
    13.5576  13.7575  14.6217  18.3629

          k = 0.2915-0.1683 0.2157 (   501 PWs)   bands (ev):

     7.3181   9.1959  10.7392  11.3465  11.9253  12.3881  12.7227  13.3487
    13.8321  13.9623  14.3529  15.4688

          k = 0.4372-0.2524 0.0000 (   492 PWs)   bands (ev):

     8.5861   9.8509  10.1117  10.8325  12.1815  12.3134  12.6172  14.2931
    14.4614  14.6874  14.8188  17.7868

          k = 0.4372-0.2524 0.2157 (   495 PWs)   bands (ev):

     8.8191   9.4884  10.6044  10.9668  12.3922  12.6674  12.9842  13.8195
    14.3753  14.4518  14.5120  15.9883

          k = 0.2915 0.0000 0.0000 (   503 PWs)   bands (ev):

     5.9624   9.9944  10.8388  11.2260  12.3505  12.3701  12.8347  13.1091
    13.3442  13.6891  14.5486  17.6668

          k = 0.2915 0.0000-0.2157 (   503 PWs)   bands (ev):

     6.8567   8.9968  10.8384  11.4292  11.9138  12.2550  12.7009  13.1127
    13.8080  13.8809  14.3564  15.2917

          k = 0.2915-0.3365 0.0000 (   496 PWs)   bands (ev):

     7.9661  10.2340  10.3126  10.7477  12.0381  12.4741  12.5048  13.6989
    14.1990  14.5916  14.6982  19.7525

          k = 0.4372-0.0841 0.0000 (   496 PWs)   bands (ev):

     7.9661  10.2340  10.3126  10.7477  12.0381  12.4741  12.5048  13.6989
    14.1990  14.5916  14.6982  19.7525

          k = 0.2915-0.3365 0.2157 (   495 PWs)   bands (ev):

     8.5334   9.6962  10.6837  11.0942  11.8589  12.1169  12.7451  13.5487
    14.0961  14.4893  14.8618  16.2320

          k = 0.4372-0.0841-0.2157 (   495 PWs)   bands (ev):

     8.5334   9.6962  10.6837  11.0942  11.8589  12.1169  12.7451  13.5487
    14.0961  14.4893  14.8618  16.2320

          k = 0.4372-0.4207 0.0000 (   486 PWs)   bands (ev):

     9.3925   9.9233  10.1390  10.5816  12.0197  12.1887  12.7671  14.3244
    14.4230  14.6048  15.8459  17.1092

          k = 0.4372-0.4207 0.2157 (   488 PWs)   bands (ev):

     9.3750   9.7837  10.6961  10.9466  11.7993  12.3374  12.9992  13.7673
    14.3088  14.5455  15.7945  16.6467

          k = 0.5829 0.0000 0.0000 (   494 PWs)   bands (ev):

     9.6148  10.2608  10.3343  10.3437  11.8555  12.1096  12.8969  13.9613
    14.4135  14.5177  16.1874  18.9475

          k = 0.5829 0.0000-0.2157 (   495 PWs)   bands (ev):

     9.9021  10.1635  10.6327  10.9307  11.5057  11.6964  12.9045  13.6047
    14.1595  14.5022  16.6783  18.0657

     the Fermi energy is    12.2339 ev

!    total energy              =    -111.57478925 Ry
     estimated scf accuracy    <          2.5E-09 Ry
     smearing contrib. (-TS)   =       0.00046321 Ry
     internal energy E=F+TS    =    -111.57525246 Ry

     The total energy is F=E-TS. E is the sum of the following terms:
     one-electron contribution =      10.99659911 Ry
     hartree contribution      =      14.24878914 Ry
     xc contribution           =     -52.89459508 Ry
     ewald contribution        =     -83.92604563 Ry

     total magnetization       =     5.70 Bohr mag/cell
     absolute magnetization    =     5.88 Bohr mag/cell

     convergence has been achieved in   8 iterations

     Forces acting on atoms (cartesian axes, Ry/au):

     atom    1 type  1   force =     0.00000000    0.00000086    0.00000000
     atom    2 type  1   force =     0.00000000   -0.00000086    0.00000000

     Total force =     0.000001     Total SCF correction =     0.000001
     SCF correction compared to forces is large: reduce conv_thr to get better values


     Computing stress (Cartesian axis) and pressure

          total   stress  (Ry/bohr**3)                   (kbar)     P=      -22.18
  -0.00033386   0.00000000   0.00000000          -49.11        0.00        0.00
   0.00000000  -0.00033389   0.00000000            0.00      -49.12        0.00
   0.00000000   0.00000000   0.00021535            0.00        0.00       31.68

     Energy error            =      4.0E-03 Ry
     Gradient error          =      8.6E-07 Ry/Bohr
     Cell gradient error     =      4.9E+01 kbar

     number of scf cycles    =   2
     number of bfgs steps    =   1

     enthalpy           old  =    -111.5708108718 Ry
     enthalpy           new  =    -111.5747892486 Ry

     CASE: enthalpy          _new < enthalpy          _old

     new trust radius        =       0.0422807280 bohr
     new conv_thr            =       0.0000000010 Ry

     new unit-cell volume =    166.50455 a.u.^3 (    24.67343 Ang^3 )
     density =      7.51682 g/cm^3

CELL_PARAMETERS (angstrom)
   2.604024066   0.000000000   0.000000000
  -1.302012033   2.255146569   0.000000000
   0.000000000   0.000000000   4.201552043

ATOMIC_POSITIONS (angstrom)
Fe               0.0000000000       -0.0000021353        0.0000000000
Fe               0.0000000000        1.5034373024        2.1007760215


     Message from routine punch:
     Nothing written, as per user request (disk_io='none')
     NEW-OLD atomic charge density approx. for the potential
     New effective cutoffs (rho, wfc):  322.34   32.25

     Check: negative core charge=   -0.000004
     Generating pointlists ...

     total cpu time spent up to now is       12.0 secs

     Self-consistent Calculation

     iteration #  1     ecut=    30.00 Ry     beta= 0.50
     Davidson diagonalization with overlap
     ethr =  1.00E-06,  avg # of iterations =  6.4

     total cpu time spent up to now is       12.8 secs

     total energy              =    -111.57619669 Ry
     estimated scf accuracy    <       0.00022287 Ry

     total magnetization       =     5.65 Bohr mag/cell
     absolute magnetization    =     5.83 Bohr mag/cell

     iteration #  2     ecut=    30.00 Ry     beta= 0.50
     Davidson diagonalization with overlap
     ethr =  1.39E-06,  avg # of iterations =  1.0

     total cpu time spent up to now is       13.2 secs

     total energy              =    -111.57626981 Ry
     estimated scf accuracy    <       0.00008491 Ry

     total magnetization       =     5.64 Bohr mag/cell
     absolute magnetization    =     5.81 Bohr mag/cell

     iteration #  3     ecut=    30.00 Ry     beta= 0.50
     Davidson diagonalization with overlap
     ethr =  5.31E-07,  avg # of iterations =  2.0

     total cpu time spent up to now is       13.6 secs

     total energy              =    -111.57629512 Ry
     estimated scf accuracy    <       0.00006012 Ry

     total magnetization       =     5.61 Bohr mag/cell
     absolute magnetization    =     5.79 Bohr mag/cell

     iteration #  4     ecut=    30.00 Ry     beta= 0.50
     Davidson diagonalization with overlap
     ethr =  3.76E-07,  avg # of iterations =  1.0

     total cpu time spent up to now is       14.0 secs

     total energy              =    -111.57630475 Ry
     estimated scf accuracy    <       0.00008030 Ry

     total magnetization       =     5.61 Bohr mag/cell
     absolute magnetization    =     5.78 Bohr mag/cell

     iteration #  5     ecut=    30.00 Ry     beta= 0.50
     Davidson diagonalization with overlap
     ethr =  3.76E-07,  avg # of iterations =  1.0

     total cpu time spent up to now is       14.3 secs

     total energy              =    -111.57631232 Ry
     estimated scf accuracy    <       0.00000125 Ry

     total magnetization       =     5.60 Bohr mag/cell
     absolute magnetization    =     5.78 Bohr mag/cell

     iteration #  6     ecut=    30.00 Ry     beta= 0.50
     Davidson diagonalization with overlap
     ethr =  7.82E-09,  avg # of iterations =  4.3

     total cpu time spent up to now is       14.9 secs

     total energy              =    -111.57631363 Ry
     estimated scf accuracy    <       0.00000014 Ry

     total magnetization       =     5.60 Bohr mag/cell
     absolute magnetization    =     5.77 Bohr mag/cell

     iteration #  7     ecut=    30.00 Ry     beta= 0.50
     Davidson diagonalization with overlap
     ethr =  8.72E-10,  avg # of iterations =  4.7

     total cpu time spent up to now is       15.5 secs

     total energy              =    -111.57631387 Ry
     estimated scf accuracy    <       0.00000002 Ry

     total magnetization       =     5.60 Bohr mag/cell
     absolute magnetization    =     5.77 Bohr mag/cell

     iteration #  8     ecut=    30.00 Ry     beta= 0.50
     Davidson diagonalization with overlap
     ethr =  1.05E-10,  avg # of iterations =  5.3

     Magnetic moment per site  (integrated on atomic sphere of radius R)
     atom   1 (R=0.395)  charge=  6.6475  magn=  2.8230
     atom   2 (R=0.395)  charge=  6.6463  magn=  2.8229

     total cpu time spent up to now is       16.1 secs

     End of self-consistent calculation

 ------ SPIN UP ------------


          k = 0.0000 0.0000 0.0000 (   523 PWs)   bands (ev):

     4.1298   7.5419   9.7659   9.7659   9.9353  10.0600  10.0600  10.3960
    10.3960  11.4432  11.4432  12.4349

          k = 0.0000 0.0000 0.2142 (   512 PWs)   bands (ev):

     5.1297   7.1312   9.6543   9.6543   9.7249   9.8389   9.8389  10.1766
    10.8541  10.8541  11.3421  11.3421

          k = 0.0000 0.1710 0.0000 (   505 PWs)   bands (ev):

     4.7831   7.9112   9.4063   9.8701   9.9133  10.0699  10.2198  10.2724
    10.3278  10.4740  11.5144  14.3804

          k = 0.0000 0.1710 0.2142 (   502 PWs)   bands (ev):

     5.7269   7.6150   9.2337   9.4557   9.6512   9.8827  10.0388  10.0877
    10.8037  10.9667  11.3557  12.1405

          k = 0.0000 0.3421 0.0000 (   488 PWs)   bands (ev):

     6.4545   8.2311   8.7490   9.2506   9.8754   9.8902  10.1361  10.8098
    10.9748  10.9979  11.6099  17.2538

          k = 0.0000 0.3421 0.2142 (   501 PWs)   bands (ev):

     7.0264   8.1056   8.7272   9.2155   9.7748  10.1342  10.2849  10.6698
    11.0121  11.2841  11.3999  13.4679

          k = 0.0000 0.5131 0.0000 (   492 PWs)   bands (ev):

     7.6867   7.9349   8.1556   9.6620   9.8558   9.9223  10.2574  11.4477
    11.5819  11.6533  12.6536  16.7460

          k = 0.0000 0.5131 0.2142 (   495 PWs)   bands (ev):

     7.4739   7.8700   8.6737   8.9023  10.0766  10.5425  11.0191  11.5097
    11.6021  11.6859  12.3167  14.8540

          k = 0.1481 0.2566 0.0000 (   503 PWs)   bands (ev):

     5.9776   8.3964   8.9974   9.0596   9.8152   9.8201  10.3380  10.4848
    10.6877  11.0042  11.5493  16.4553

          k = 0.1481 0.2566 0.2142 (   503 PWs)   bands (ev):

     6.7371   8.2517   8.7989   9.1550   9.5847   9.8136  10.1223  10.5254
    11.0553  11.1341  11.4598  13.1266

          k = 0.1481 0.4276 0.0000 (   496 PWs)   bands (ev):

     7.6459   8.3151   8.3770   9.0780   9.5744  10.0374  10.0652  11.0099
    11.4407  11.5652  12.2531  19.0325

          k = 0.1481 0.4276 0.2142 (   495 PWs)   bands (ev):

     7.7132   8.1913   8.6927   9.1851   9.6655  10.0312  10.3055  10.8317
    11.3547  11.6767  12.4901  14.8301

          k = 0.1481 0.5986 0.0000 (   486 PWs)   bands (ev):

     8.0680   8.1372   8.1500   9.5555   9.5848   9.8230  10.3210  11.4999
    11.5690  11.6251  14.2816  15.7996

          k = 0.1481 0.5986 0.2142 (   488 PWs)   bands (ev):

     7.7463   8.1391   8.7294   9.0636   9.5583  10.5423  10.6395  10.9736
    11.5204  11.7741  14.5833  15.5270

          k = 0.2962 0.5131 0.0000 (   494 PWs)   bands (ev):

     8.2189   8.4868   8.6920   8.8168   9.4732   9.7415  10.3222  11.2506
    11.4801  11.6329  14.6029  18.4055

          k = 0.2962 0.5131 0.2142 (   495 PWs)   bands (ev):

     8.3074   8.4616   8.8177   9.0556   9.4363   9.7054  10.3064  10.7901
    11.4697  11.7343  15.2741  17.2919

          k = 0.1481-0.0855 0.0000 (   505 PWs)   bands (ev):

     4.7831   7.9112   9.4063   9.8701   9.9133  10.0699  10.2198  10.2724
    10.3278  10.4740  11.5144  14.3804

          k = 0.1481-0.0855 0.2142 (   502 PWs)   bands (ev):

     5.7269   7.6150   9.2337   9.4556   9.6512   9.8827  10.0388  10.0877
    10.8037  10.9667  11.3557  12.1405

          k = 0.2962-0.1710 0.0000 (   488 PWs)   bands (ev):

     6.4545   8.2312   8.7490   9.2506   9.8753   9.8902  10.1361  10.8098
    10.9748  10.9979  11.6099  17.2538

          k = 0.2962-0.1710 0.2142 (   501 PWs)   bands (ev):

     7.0264   8.1056   8.7272   9.2155   9.7748  10.1342  10.2849  10.6698
    11.0121  11.2841  11.3998  13.4679

          k = 0.4444-0.2566 0.0000 (   492 PWs)   bands (ev):

     7.6867   7.9349   8.1556   9.6620   9.8558   9.9223  10.2574  11.4477
    11.5819  11.6533  12.6536  16.7459

          k = 0.4444-0.2566 0.2142 (   495 PWs)   bands (ev):

     7.4739   7.8700   8.6737   8.9023  10.0766  10.5425  11.0191  11.5097
    11.6021  11.6859  12.3167  14.8540

          k = 0.2962 0.0000 0.0000 (   503 PWs)   bands (ev):

     5.9776   8.3964   8.9974   9.0596   9.8152   9.8201  10.3380  10.4848
    10.6877  11.0043  11.5493  16.4553

          k = 0.2962 0.0000-0.2142 (   503 PWs)   bands (ev):

     6.7371   8.2517   8.7989   9.1550   9.5847   9.8136  10.1223  10.5254
    11.0553  11.1341  11.4598  13.1267

          k = 0.2962-0.3421 0.0000 (   496 PWs)   bands (ev):

     7.6459   8.3152   8.3770   9.0780   9.5744  10.0374  10.0652  11.0099
    11.4407  11.5652  12.2531  19.0325

          k = 0.4444-0.0855 0.0000 (   496 PWs)   bands (ev):

     7.6459   8.3152   8.3770   9.0780   9.5744  10.0374  10.0652  11.0099
    11.4407  11.5652  12.2531  19.0325

          k = 0.2962-0.3421 0.2142 (   495 PWs)   bands (ev):

     7.7132   8.1913   8.6927   9.1851   9.6655  10.0311  10.3055  10.8317
    11.3547  11.6767  12.4901  14.8301

          k = 0.4444-0.0855-0.2142 (   495 PWs)   bands (ev):

     7.7132   8.1914   8.6927   9.1851   9.6655  10.0311  10.3055  10.8317
    11.3547  11.6767  12.4900  14.8301

          k = 0.4444-0.4276 0.0000 (   486 PWs)   bands (ev):

     8.0680   8.1372   8.1500   9.5555   9.5848   9.8230  10.3209  11.4999
    11.5690  11.6251  14.2816  15.7996

          k = 0.4444-0.4276 0.2142 (   488 PWs)   bands (ev):

     7.7463   8.1391   8.7294   9.0636   9.5583  10.5423  10.6395  10.9736
    11.5204  11.7741  14.5833  15.5269

          k = 0.5925 0.0000 0.0000 (   494 PWs)   bands (ev):

     8.2189   8.4868   8.6921   8.8168   9.4732   9.7415  10.3222  11.2506
    11.4801  11.6329  14.6029  18.4055

          k = 0.5925 0.0000-0.2142 (   495 PWs)   bands (ev):

     8.3074   8.4616   8.8177   9.0556   9.4363   9.7054  10.3064  10.7901
    11.4697  11.7343  15.2741  17.2919

 ------ SPIN DOWN ----------


          k = 0.0000 0.0000 0.0000 (   523 PWs)   bands (ev):

     4.4072   9.1824  12.5837  12.6154  12.7003  12.7003  13.0866  13.0866
    13.5783  13.5783  14.8160  14.8160

          k = 0.0000 0.0000 0.2142 (   512 PWs)   bands (ev):

     5.4286   7.9070  11.8393  12.2537  12.5855  12.5856  12.8133  12.8133
    14.1185  14.1185  14.7071  14.7071

          k = 0.0000 0.1710 0.0000 (   505 PWs)   bands (ev):

     5.0651   9.6366  11.7691  12.1237  12.8299  13.0575  13.0984  13.3455
    13.3480  13.4006  14.9122  16.2381

          k = 0.0000 0.1710 0.2142 (   502 PWs)   bands (ev):

     6.0461   8.4306  11.4633  12.2269  12.2755  12.7543  12.8599  13.0984
    14.0400  14.1210  14.7217  15.1082

          k = 0.0000 0.3421 0.0000 (   488 PWs)   bands (ev):

     6.8527  10.3394  10.8442  11.5172  12.5694  12.9267  12.9351  13.8532
    13.9538  14.1683  15.0364  18.7809

          k = 0.0000 0.3421 0.2142 (   501 PWs)   bands (ev):

     7.6440   9.4673  11.0350  11.6888  12.2010  12.7017  13.1888  13.7882
    14.2438  14.3249  14.7569  15.8786

          k = 0.0000 0.5131 0.0000 (   492 PWs)   bands (ev):

     8.9476  10.1210  10.3793  11.2498  12.6182  12.6392  12.8723  14.7622
    14.9144  15.0907  15.2331  18.3541

          k = 0.0000 0.5131 0.2142 (   495 PWs)   bands (ev):

     9.1278   9.7648  10.8946  11.2660  12.7246  13.1228  13.3877  14.2624
    14.8344  14.8439  14.9573  16.4371

          k = 0.1481 0.2566 0.0000 (   503 PWs)   bands (ev):

     6.2990  10.2988  11.0863  11.5477  12.6340  12.7896  13.2746  13.3592
    13.7539  14.0861  14.9568  18.0816

          k = 0.1481 0.2566 0.2142 (   503 PWs)   bands (ev):

     7.1741   9.2698  11.1380  11.7664  12.1956  12.5417  13.1470  13.5414
    14.2129  14.2589  14.7527  15.7085

          k = 0.1481 0.4276 0.0000 (   496 PWs)   bands (ev):

     8.3483  10.5412  10.5870  11.1067  12.4231  12.7665  12.8622  14.0115
    14.6395  14.9773  15.1726  20.2813

          k = 0.1481 0.4276 0.2142 (   495 PWs)   bands (ev):

     8.8780   9.9797  10.9857  11.4350  12.1661  12.4612  13.1429  13.9692
    14.4689  14.9264  15.3204  16.6844

          k = 0.1481 0.5986 0.0000 (   486 PWs)   bands (ev):

     9.7536  10.2134  10.4280  11.0023  12.4403  12.4989  13.0319  14.7186
    14.8416  14.9817  16.3874  17.7206

          k = 0.1481 0.5986 0.2142 (   488 PWs)   bands (ev):

     9.6756  10.0866  11.0064  11.2731  12.1365  12.7158  13.3945  14.1761
    14.7123  14.9537  16.3207  17.2084

          k = 0.2962 0.5131 0.0000 (   494 PWs)   bands (ev):

    10.0103  10.5786  10.6760  10.6980  12.2079  12.4575  13.1788  14.2844
    14.8011  14.8699  16.7825  19.6763

          k = 0.2962 0.5131 0.2142 (   495 PWs)   bands (ev):

    10.2544  10.4736  10.9575  11.2824  11.8342  12.0339  13.2354  13.9808
    14.5457  14.9177  17.2587  18.6612

          k = 0.1481-0.0855 0.0000 (   505 PWs)   bands (ev):

     5.0651   9.6366  11.7691  12.1237  12.8299  13.0576  13.0984  13.3454
    13.3481  13.4006  14.9122  16.2382

          k = 0.1481-0.0855 0.2142 (   502 PWs)   bands (ev):

     6.0461   8.4306  11.4633  12.2269  12.2755  12.7543  12.8599  13.0984
    14.0400  14.1210  14.7217  15.1082

          k = 0.2962-0.1710 0.0000 (   488 PWs)   bands (ev):

     6.8527  10.3394  10.8442  11.5172  12.5693  12.9267  12.9351  13.8532
    13.9538  14.1683  15.0364  18.7809

          k = 0.2962-0.1710 0.2142 (   501 PWs)   bands (ev):

     7.6440   9.4673  11.0350  11.6888  12.2010  12.7017  13.1888  13.7882
    14.2438  14.3249  14.7569  15.8786

          k = 0.4444-0.2566 0.0000 (   492 PWs)   bands (ev):

     8.9476  10.1210  10.3793  11.2498  12.6181  12.6392  12.8722  14.7622
    14.9144  15.0907  15.2331  18.3540

          k = 0.4444-0.2566 0.2142 (   495 PWs)   bands (ev):

     9.1278   9.7648  10.8946  11.2660  12.7246  13.1228  13.3877  14.2624
    14.8344  14.8439  14.9573  16.4371

          k = 0.2962 0.0000 0.0000 (   503 PWs)   bands (ev):

     6.2990  10.2988  11.0863  11.5477  12.6340  12.7895  13.2746  13.3592
    13.7540  14.0861  14.9568  18.0816

          k = 0.2962 0.0000-0.2142 (   503 PWs)   bands (ev):

     7.1741   9.2698  11.1380  11.7664  12.1956  12.5416  13.1470  13.5414
    14.2129  14.2589  14.7527  15.7085

          k = 0.2962-0.3421 0.0000 (   496 PWs)   bands (ev):

     8.3483  10.5412  10.5870  11.1067  12.4231  12.7665  12.8622  14.0115
    14.6395  14.9773  15.1726  20.2813

          k = 0.4444-0.0855 0.0000 (   496 PWs)   bands (ev):

     8.3483  10.5412  10.5870  11.1067  12.4231  12.7665  12.8622  14.0115
    14.6395  14.9773  15.1726  20.2813

          k = 0.2962-0.3421 0.2142 (   495 PWs)   bands (ev):

     8.8780   9.9797  10.9857  11.4350  12.1661  12.4611  13.1429  13.9692
    14.4689  14.9264  15.3204  16.6844

          k = 0.4444-0.0855-0.2142 (   495 PWs)   bands (ev):

     8.8780   9.9797  10.9857  11.4350  12.1661  12.4611  13.1429  13.9692
    14.4689  14.9264  15.3204  16.6844

          k = 0.4444-0.4276 0.0000 (   486 PWs)   bands (ev):

     9.7536  10.2134  10.4281  11.0023  12.4403  12.4989  13.0319  14.7186
    14.8416  14.9817  16.3874  17.7205

          k = 0.4444-0.4276 0.2142 (   488 PWs)   bands (ev):

     9.6756  10.0866  11.0064  11.2731  12.1365  12.7158  13.3945  14.1761
    14.7123  14.9537  16.3207  17.2083

          k = 0.5925 0.0000 0.0000 (   494 PWs)   bands (ev):

    10.0103  10.5786  10.6760  10.6980  12.2079  12.4575  13.1788  14.2844
    14.8011  14.8699  16.7825  19.6763

          k = 0.5925 0.0000-0.2142 (   495 PWs)   bands (ev):

    10.2544  10.4736  10.9575  11.2824  11.8342  12.0339  13.2354  13.9808
    14.5457  14.9177  17.2587  18.6612

     the Fermi energy is    12.5906 ev

!    total energy              =    -111.57631390 Ry
     estimated scf accuracy    <          5.7E-10 Ry
     smearing contrib. (-TS)   =      -0.00030806 Ry
     internal energy E=F+TS    =    -111.57600584 Ry

     The total energy is F=E-TS. E is the sum of the following terms:
     one-electron contribution =      12.04501496 Ry
     hartree contribution      =      13.95408620 Ry
     xc contribution           =     -52.91295896 Ry
     ewald contribution        =     -84.66214804 Ry

     total magnetization       =     5.60 Bohr mag/cell
     absolute magnetization    =     5.77 Bohr mag/cell

     convergence has been achieved in   8 iterations

     Forces acting on atoms (cartesian axes, Ry/au):

     atom    1 type  1   force =     0.00000000   -0.00000058    0.00000000
     atom    2 type  1   force =     0.00000000    0.00000058    0.00000000

     Total force =     0.000001     Total SCF correction =     0.000000
     SCF correction compared to forces is large: reduce conv_thr to get better values


     Computing stress (Cartesian axis) and pressure

          total   stress  (Ry/bohr**3)                   (kbar)     P=        8.59
  -0.00010768  -0.00000000   0.00000000          -15.84       -0.00        0.00
  -0.00000000  -0.00010772   0.00000000           -0.00      -15.85        0.00
   0.00000000   0.00000000   0.00039048            0.00        0.00       57.44

     Energy error            =      1.5E-03 Ry
     Gradient error          =      5.8E-07 Ry/Bohr
     Cell gradient error     =      5.7E+01 kbar

     number of scf cycles    =   3
     number of bfgs steps    =   2

     enthalpy           old  =    -111.5747892486 Ry
     enthalpy           new  =    -111.5763138992 Ry

     CASE: enthalpy          _new < enthalpy          _old

     new trust radius        =       0.0542222207 bohr
     new conv_thr            =       0.0000000010 Ry

     new unit-cell volume =    162.82713 a.u.^3 (    24.12849 Ang^3 )
     density =      7.68658 g/cm^3

CELL_PARAMETERS (angstrom)
   2.549320508  -0.000000000   0.000000000
  -1.274660254   2.207765045   0.000000000
   0.000000000   0.000000000   4.286994024

ATOMIC_POSITIONS (angstrom)
Fe               0.0000000000       -0.0000031303        0.0000000000
Fe               0.0000000000        1.4718505285        2.1434970119


     Message from routine punch:
     Nothing written, as per user request (disk_io='none')
     NEW-OLD atomic charge density approx. for the potential
     New effective cutoffs (rho, wfc):  336.28   33.65

     Check: negative core charge=   -0.000003
     Generating pointlists ...
     new r_m :   0.3895 (alat units)  1.9872 (a.u.) for type    1

     total cpu time spent up to now is       16.5 secs

     Self-consistent Calculation

     iteration #  1     ecut=    30.00 Ry     beta= 0.50
     Davidson diagonalization with overlap
     ethr =  1.00E-06,  avg # of iterations =  7.2

     total cpu time spent up to now is       17.4 secs

     total energy              =    -111.57762719 Ry
     estimated scf accuracy    <       0.00089333 Ry

     total magnetization       =     5.41 Bohr mag/cell
     absolute magnetization    =     5.61 Bohr mag/cell

     iteration #  2     ecut=    30.00 Ry     beta= 0.50
     Davidson diagonalization with overlap
     ethr =  5.58E-06,  avg # of iterations =  1.0

     total cpu time spent up to now is       17.8 secs

     total energy              =    -111.57806406 Ry
     estimated scf accuracy    <       0.00043692 Ry

     total magnetization       =     5.35 Bohr mag/cell
     absolute magnetization    =     5.56 Bohr mag/cell

     iteration #  3     ecut=    30.00 Ry     beta= 0.50
     Davidson diagonalization with overlap
     ethr =  2.73E-06,  avg # of iterations =  1.5

     total cpu time spent up to now is       18.2 secs

     total energy              =    -111.57832385 Ry
     estimated scf accuracy    <       0.00017979 Ry

     total magnetization       =     5.25 Bohr mag/cell
     absolute magnetization    =     5.47 Bohr mag/cell

     iteration #  4     ecut=    30.00 Ry     beta= 0.50
     Davidson diagonalization with overlap
     ethr =  1.12E-06,  avg # of iterations =  2.0

     total cpu time spent up to now is       18.7 secs

     total energy              =    -111.57830111 Ry
     estimated scf accuracy    <       0.00223372 Ry

     total magnetization       =     5.21 Bohr mag/cell
     absolute magnetization    =     5.44 Bohr mag/cell

     iteration #  5     ecut=    30.00 Ry     beta= 0.50
     Davidson diagonalization with overlap
     ethr =  1.12E-06,  avg # of iterations =  1.3

     total cpu time spent up to now is       19.2 secs

     total energy              =    -111.57844679 Ry
     estimated scf accuracy    <       0.00003213 Ry

     total magnetization       =     5.19 Bohr mag/cell
     absolute magnetization    =     5.42 Bohr mag/cell

     iteration #  6     ecut=    30.00 Ry     beta= 0.50
     Davidson diagonalization with overlap
     ethr =  2.01E-07,  avg # of iterations =  2.0

     total cpu time spent up to now is       19.7 secs

     total energy              =    -111.57847442 Ry
     estimated scf accuracy    <       0.00000215 Ry

     total magnetization       =     5.16 Bohr mag/cell
     absolute magnetization    =     5.39 Bohr mag/cell

     iteration #  7     ecut=    30.00 Ry     beta= 0.50
     Davidson diagonalization with overlap
     ethr =  1.34E-08,  avg # of iterations =  4.0

     total cpu time spent up to now is       20.2 secs

     total energy              =    -111.57847584 Ry
     estimated scf accuracy    <       0.00000123 Ry

     total magnetization       =     5.16 Bohr mag/cell
     absolute magnetization    =     5.39 Bohr mag/cell

     iteration #  8     ecut=    30.00 Ry     beta= 0.50
     Davidson diagonalization with overlap
     ethr =  7.69E-09,  avg # of iterations =  1.6

     total cpu time spent up to now is       20.7 secs

     total energy              =    -111.57847629 Ry
     estimated scf accuracy    <       0.00000001 Ry

     total magnetization       =     5.16 Bohr mag/cell
     absolute magnetization    =     5.39 Bohr mag/cell

     iteration #  9     ecut=    30.00 Ry     beta= 0.50
     Davidson diagonalization with overlap
     ethr =  6.64E-11,  avg # of iterations = 11.0

     total cpu time spent up to now is       21.8 secs

     total energy              =    -111.57847642 Ry
     estimated scf accuracy    <          2.5E-09 Ry

     total magnetization       =     5.16 Bohr mag/cell
     absolute magnetization    =     5.39 Bohr mag/cell

     iteration # 10     ecut=    30.00 Ry     beta= 0.50
     Davidson diagonalization with overlap
     ethr =  1.55E-11,  avg # of iterations =  4.0

     total cpu time spent up to now is       22.4 secs

     total energy              =    -111.57847642 Ry
     estimated scf accuracy    <          1.3E-09 Ry

     total magnetization       =     5.16 Bohr mag/cell
     absolute magnetization    =     5.39 Bohr mag/cell

     iteration # 11     ecut=    30.00 Ry     beta= 0.50
     Davidson diagonalization with overlap
     ethr =  8.33E-12,  avg # of iterations =  1.5

     Magnetic moment per site  (integrated on atomic sphere of radius R)
     atom   1 (R=0.389)  charge=  6.6013  magn=  2.6254
     atom   2 (R=0.389)  charge=  6.6009  magn=  2.6254

     total cpu time spent up to now is       22.8 secs

     End of self-consistent calculation

 ------ SPIN UP ------------


          k = 0.0000 0.0000 0.0000 (   523 PWs)   bands (ev):

     4.4274   7.8662  10.1688  10.2647  10.2647  10.5281  10.5281  10.9404
    10.9404  11.8769  11.8769  12.4097

          k = 0.0000 0.0000 0.2099 (   512 PWs)   bands (ev):

     5.3902   7.3765   9.9851  10.1835  10.1835  10.3434  10.3434  10.3858
    11.3308  11.3309  11.7723  11.7723

          k = 0.0000 0.1747 0.0000 (   505 PWs)   bands (ev):

     5.1105   8.2822   9.8595  10.2129  10.3255  10.5883  10.5947  10.7604
    10.8264  10.8688  11.9369  14.5665

          k = 0.0000 0.1747 0.2099 (   502 PWs)   bands (ev):

     6.0178   7.8932   9.6051   9.9261   9.9895  10.4115  10.4403  10.6179
    11.2764  11.3943  11.7819  12.5176

          k = 0.0000 0.3494 0.0000 (   488 PWs)   bands (ev):

     6.8431   8.6412   9.0357   9.7490  10.2173  10.4234  10.4814  11.4013
    11.4034  11.5468  12.0068  17.4939

          k = 0.0000 0.3494 0.2099 (   501 PWs)   bands (ev):

     7.3734   8.4111   9.0999   9.5854  10.2193  10.6762  10.7083  11.2263
    11.5636  11.6796  11.8553  13.8160

          k = 0.0000 0.5241 0.0000 (   492 PWs)   bands (ev):

     8.0712   8.3177   8.4462  10.1892  10.1973  10.3511  10.6436  12.0306
    12.1069  12.2155  13.2329  17.4556

          k = 0.0000 0.5241 0.2099 (   495 PWs)   bands (ev):

     7.8161   8.2084   9.0085   9.2072  10.5826  10.9969  11.4744  12.1484
    12.1517  12.2196  12.8398  15.3256

          k = 0.1513 0.2621 0.0000 (   503 PWs)   bands (ev):

     6.3552   8.8387   9.3519   9.4513  10.2066  10.2800  10.7889  10.8128
    11.2617  11.5493  11.9379  16.6856

          k = 0.1513 0.2621 0.2099 (   503 PWs)   bands (ev):

     7.0760   8.5461   9.2131   9.6116   9.9419  10.1773  10.6675  11.0661
    11.5566  11.5716  11.8940  13.4841

          k = 0.1513 0.4368 0.0000 (   496 PWs)   bands (ev):

     8.0732   8.6876   8.7404   9.5704   9.9959  10.4282  10.4396  11.4378
    11.9177  12.0468  12.9085  19.4977

          k = 0.1513 0.4368 0.2099 (   495 PWs)   bands (ev):

     8.0811   8.5235   9.0847   9.5486  10.1137  10.4910  10.7720  11.2831
    11.7891  12.2354  13.0956  15.2571

          k = 0.1513 0.6115 0.0000 (   486 PWs)   bands (ev):

     8.4610   8.4734   8.5664  10.0283  10.1143  10.1175  10.7011  11.9075
    12.0486  12.1903  15.0032  16.5991

          k = 0.1513 0.6115 0.2099 (   488 PWs)   bands (ev):

     8.0972   8.5041   9.0986   9.3856  10.0124  10.9915  11.1397  11.4553
    12.0483  12.2706  15.2197  16.2167

          k = 0.3026 0.5241 0.0000 (   494 PWs)   bands (ev):

     8.5925   8.9553   9.1742   9.2927   9.8418  10.0962  10.7314  11.6732
    11.7796  12.1527  15.3965  19.3058

          k = 0.3026 0.5241 0.2099 (   495 PWs)   bands (ev):

     8.6719   8.8550   9.2470   9.4847   9.8289  10.1273  10.7522  11.1836
    11.9312  12.2469  16.0040  17.9426

          k = 0.1513-0.0874 0.0000 (   505 PWs)   bands (ev):

     5.1105   8.2822   9.8594  10.2129  10.3255  10.5883  10.5947  10.7604
    10.8264  10.8688  11.9369  14.5665

          k = 0.1513-0.0874 0.2099 (   502 PWs)   bands (ev):

     6.0178   7.8932   9.6051   9.9261   9.9895  10.4115  10.4403  10.6179
    11.2764  11.3943  11.7819  12.5176

          k = 0.3026-0.1747 0.0000 (   488 PWs)   bands (ev):

     6.8431   8.6412   9.0357   9.7490  10.2173  10.4235  10.4813  11.4013
    11.4034  11.5468  12.0068  17.4939

          k = 0.3026-0.1747 0.2099 (   501 PWs)   bands (ev):

     7.3734   8.4111   9.0999   9.5854  10.2193  10.6762  10.7082  11.2264
    11.5636  11.6796  11.8553  13.8160

          k = 0.4539-0.2621 0.0000 (   492 PWs)   bands (ev):

     8.0712   8.3177   8.4462  10.1892  10.1973  10.3511  10.6436  12.0306
    12.1069  12.2155  13.2329  17.4555

          k = 0.4539-0.2621 0.2099 (   495 PWs)   bands (ev):

     7.8161   8.2084   9.0085   9.2072  10.5827  10.9969  11.4744  12.1484
    12.1517  12.2196  12.8398  15.3255

          k = 0.3026 0.0000 0.0000 (   503 PWs)   bands (ev):

     6.3552   8.8387   9.3520   9.4513  10.2066  10.2800  10.7889  10.8128
    11.2617  11.5493  11.9379  16.6856

          k = 0.3026 0.0000-0.2099 (   503 PWs)   bands (ev):

     7.0760   8.5462   9.2131   9.6116   9.9419  10.1773  10.6675  11.0661
    11.5566  11.5716  11.8940  13.4841

          k = 0.3026-0.3494 0.0000 (   496 PWs)   bands (ev):

     8.0732   8.6876   8.7404   9.5704   9.9959  10.4282  10.4396  11.4377
    11.9177  12.0468  12.9085  19.4977

          k = 0.4539-0.0874 0.0000 (   496 PWs)   bands (ev):

     8.0732   8.6876   8.7404   9.5704   9.9959  10.4282  10.4396  11.4378
    11.9177  12.0467  12.9084  19.4977

          k = 0.3026-0.3494 0.2099 (   495 PWs)   bands (ev):

     8.0811   8.5235   9.0847   9.5486  10.1137  10.4909  10.7720  11.2831
    11.7891  12.2354  13.0956  15.2571

          k = 0.4539-0.0874-0.2099 (   495 PWs)   bands (ev):

     8.0811   8.5235   9.0847   9.5486  10.1137  10.4909  10.7720  11.2831
    11.7891  12.2354  13.0956  15.2571

          k = 0.4539-0.4368 0.0000 (   486 PWs)   bands (ev):

     8.4611   8.4734   8.5664  10.0284  10.1143  10.1174  10.7011  11.9075
    12.0486  12.1902  15.0032  16.5990

          k = 0.4539-0.4368 0.2099 (   488 PWs)   bands (ev):

     8.0972   8.5041   9.0986   9.3856  10.0124  10.9914  11.1397  11.4553
    12.0483  12.2706  15.2197  16.2167

          k = 0.6052 0.0000 0.0000 (   494 PWs)   bands (ev):

     8.5925   8.9553   9.1743   9.2927   9.8418  10.0962  10.7314  11.6732
    11.7796  12.1527  15.3964  19.3059

          k = 0.6052 0.0000-0.2099 (   495 PWs)   bands (ev):

     8.6719   8.8550   9.2470   9.4847   9.8289  10.1273  10.7522  11.1836
    11.9313  12.2469  16.0040  17.9426

 ------ SPIN DOWN ----------


          k = 0.0000 0.0000 0.0000 (   523 PWs)   bands (ev):

     4.6084   9.2531  12.4962  12.5830  12.9289  12.9289  13.2677  13.2678
    14.0631  14.0631  15.1681  15.1681

          k = 0.0000 0.0000 0.2099 (   512 PWs)   bands (ev):

     5.5858   7.9650  11.8932  12.2623  12.8710  12.8711  13.0599  13.0600
    14.4973  14.4973  15.0332  15.0332

          k = 0.0000 0.1747 0.0000 (   505 PWs)   bands (ev):

     5.2980   9.7596  11.7979  12.3060  12.9350  13.1704  13.3095  13.6118
    13.7638  13.8293  15.2498  16.4986

          k = 0.0000 0.1747 0.2099 (   502 PWs)   bands (ev):

     6.2354   8.5234  11.5994  12.3005  12.5224  12.9172  13.1942  13.3811
    14.3883  14.4382  15.0359  15.4130

          k = 0.0000 0.3494 0.0000 (   488 PWs)   bands (ev):

     7.1561  10.5300  10.9648  11.7891  12.6140  13.2147  13.4009  13.9633
    14.2640  14.4528  15.3413  19.0092

          k = 0.0000 0.3494 0.2099 (   501 PWs)   bands (ev):

     7.8982   9.6150  11.2243  11.9143  12.3391  12.8810  13.6409  14.1467
    14.5379  14.5462  15.0434  16.1371

          k = 0.0000 0.5241 0.0000 (   492 PWs)   bands (ev):

     9.2469  10.2701  10.5569  11.6380  12.7883  12.9503  13.1071  15.1347
    15.2560  15.3713  15.5058  18.7899

          k = 0.0000 0.5241 0.2099 (   495 PWs)   bands (ev):

     9.3605   9.9346  11.0736  11.4321  12.9625  13.5664  13.7081  14.6339
    15.0931  15.1903  15.2891  16.7399

          k = 0.1513 0.2621 0.0000 (   503 PWs)   bands (ev):

     6.5860  10.5107  11.1852  11.7559  12.7278  13.1741  13.3962  13.6946
    14.0526  14.3557  15.2513  18.3199

          k = 0.1513 0.2621 0.2099 (   503 PWs)   bands (ev):

     7.4160   9.4134  11.3399  11.9849  12.3395  12.6492  13.5628  13.8976
    14.5037  14.5137  15.0260  15.9888

          k = 0.1513 0.4368 0.0000 (   496 PWs)   bands (ev):

     8.6941  10.7494  10.7638  11.4003  12.7358  12.8291  13.2125  14.1401
    14.9689  15.2265  15.5508  20.5649

          k = 0.1513 0.4368 0.2099 (   495 PWs)   bands (ev):

     9.1630  10.1661  11.1773  11.6689  12.3515  12.6922  13.4867  14.3055
    14.6985  15.2461  15.6717  16.9987

          k = 0.1513 0.6115 0.0000 (   486 PWs)   bands (ev):

    10.0536  10.3908  10.6463  11.4060  12.6833  12.8453  13.1107  14.9611
    15.1231  15.2131  16.8610  18.2682

          k = 0.1513 0.6115 0.2099 (   488 PWs)   bands (ev):

     9.9051  10.2912  11.2293  11.4770  12.3975  13.0064  13.7153  14.4766
    14.9777  15.2315  16.7757  17.6928

          k = 0.3026 0.5241 0.0000 (   494 PWs)   bands (ev):

    10.3759  10.8473  10.9193  11.0107  12.4852  12.7226  13.2576  14.4285
    15.0368  15.0546  17.3338  20.4054

          k = 0.3026 0.5241 0.2099 (   495 PWs)   bands (ev):

    10.5549  10.7197  11.1879  11.5636  12.0601  12.2722  13.4149  14.2250
    14.8023  15.2059  17.7789  19.1888

          k = 0.1513-0.0874 0.0000 (   505 PWs)   bands (ev):

     5.2980   9.7596  11.7979  12.3060  12.9350  13.1704  13.3096  13.6119
    13.7638  13.8293  15.2498  16.4986

          k = 0.1513-0.0874 0.2099 (   502 PWs)   bands (ev):

     6.2354   8.5234  11.5994  12.3005  12.5224  12.9171  13.1943  13.3811
    14.3884  14.4382  15.0359  15.4130

          k = 0.3026-0.1747 0.0000 (   488 PWs)   bands (ev):

     7.1561  10.5300  10.9648  11.7891  12.6139  13.2146  13.4009  13.9633
    14.2640  14.4528  15.3413  19.0092

          k = 0.3026-0.1747 0.2099 (   501 PWs)   bands (ev):

     7.8981   9.6150  11.2242  11.9143  12.3390  12.8810  13.6409  14.1467
    14.5379  14.5462  15.0434  16.1371

          k = 0.4539-0.2621 0.0000 (   492 PWs)   bands (ev):

     9.2469  10.2701  10.5569  11.6380  12.7882  12.9503  13.1072  15.1347
    15.2560  15.3713  15.5058  18.7898

          k = 0.4539-0.2621 0.2099 (   495 PWs)   bands (ev):

     9.3605   9.9346  11.0736  11.4321  12.9625  13.5664  13.7080  14.6339
    15.0931  15.1903  15.2892  16.7399

          k = 0.3026 0.0000 0.0000 (   503 PWs)   bands (ev):

     6.5860  10.5107  11.1852  11.7558  12.7278  13.1740  13.3962  13.6947
    14.0526  14.3557  15.2513  18.3199

          k = 0.3026 0.0000-0.2099 (   503 PWs)   bands (ev):

     7.4160   9.4134  11.3399  11.9849  12.3395  12.6492  13.5629  13.8977
    14.5037  14.5137  15.0260  15.9888

          k = 0.3026-0.3494 0.0000 (   496 PWs)   bands (ev):

     8.6941  10.7493  10.7638  11.4003  12.7358  12.8291  13.2125  14.1401
    14.9689  15.2265  15.5508  20.5649

          k = 0.4539-0.0874 0.0000 (   496 PWs)   bands (ev):

     8.6941  10.7493  10.7638  11.4003  12.7358  12.8291  13.2125  14.1401
    14.9689  15.2265  15.5508  20.5649

          k = 0.3026-0.3494 0.2099 (   495 PWs)   bands (ev):

     9.1630  10.1661  11.1773  11.6689  12.3515  12.6922  13.4867  14.3056
    14.6985  15.2461  15.6717  16.9987

          k = 0.4539-0.0874-0.2099 (   495 PWs)   bands (ev):

     9.1630  10.1661  11.1773  11.6689  12.3515  12.6922  13.4867  14.3056
    14.6986  15.2461  15.6717  16.9987

          k = 0.4539-0.4368 0.0000 (   486 PWs)   bands (ev):

    10.0536  10.3908  10.6464  11.4060  12.6832  12.8454  13.1107  14.9611
    15.1231  15.2131  16.8610  18.2681

          k = 0.4539-0.4368 0.2099 (   488 PWs)   bands (ev):

     9.9051  10.2912  11.2293  11.4770  12.3975  13.0064  13.7153  14.4766
    14.9777  15.2315  16.7756  17.6927

          k = 0.6052 0.0000 0.0000 (   494 PWs)   bands (ev):

    10.3758  10.8473  10.9193  11.0107  12.4853  12.7226  13.2575  14.4285
    15.0368  15.0546  17.3338  20.4054

          k = 0.6052 0.0000-0.2099 (   495 PWs)   bands (ev):

    10.5549  10.7197  11.1879  11.5636  12.0600  12.2722  13.4148  14.2250
    14.8024  15.2059  17.7788  19.1888

     the Fermi energy is    12.8825 ev

!    total energy              =    -111.57847643 Ry
     estimated scf accuracy    <          9.5E-11 Ry
     smearing contrib. (-TS)   =      -0.00058676 Ry
     internal energy E=F+TS    =    -111.57788967 Ry

     The total energy is F=E-TS. E is the sum of the following terms:
     one-electron contribution =      12.88164917 Ry
     hartree contribution      =      13.73317874 Ry
     xc contribution           =     -52.90530582 Ry
     ewald contribution        =     -85.28741176 Ry

     total magnetization       =     5.16 Bohr mag/cell
     absolute magnetization    =     5.39 Bohr mag/cell

     convergence has been achieved in  11 iterations

     Forces acting on atoms (cartesian axes, Ry/au):

     atom    1 type  1   force =    -0.00000000   -0.00000142    0.00000000
     atom    2 type  1   force =     0.00000000    0.00000142    0.00000000

     Total force =     0.000002     Total SCF correction =     0.000000


[...]
     Davidson diagonalization with overlap
     ethr =  6.64E-05,  avg # of iterations =  3.0

     total cpu time spent up to now is       54.4 secs

     total energy              =    -111.57643562 Ry
     estimated scf accuracy    <       0.00696344 Ry

     total magnetization       =     5.12 Bohr mag/cell
     absolute magnetization    =     5.23 Bohr mag/cell

     iteration #  5     ecut=    30.00 Ry     beta= 0.50
     Davidson diagonalization with overlap
     ethr =  4.35E-05,  avg # of iterations =  1.6

     total cpu time spent up to now is       54.8 secs

     total energy              =    -111.57576087 Ry
     estimated scf accuracy    <       0.05161522 Ry

     total magnetization       =     5.07 Bohr mag/cell
     absolute magnetization    =     5.21 Bohr mag/cell

     iteration #  6     ecut=    30.00 Ry     beta= 0.50
     Davidson diagonalization with overlap
     ethr =  4.35E-05,  avg # of iterations =  2.3

     total cpu time spent up to now is       55.3 secs

     total energy              =    -111.57747380 Ry
     estimated scf accuracy    <       0.00608376 Ry

     total magnetization       =     4.99 Bohr mag/cell
     absolute magnetization    =     5.25 Bohr mag/cell

     iteration #  7     ecut=    30.00 Ry     beta= 0.50
     Davidson diagonalization with overlap
     ethr =  3.80E-05,  avg # of iterations =  2.1

     total cpu time spent up to now is       55.8 secs

     total energy              =    -111.57922318 Ry
     estimated scf accuracy    <       0.00061246 Ry

     total magnetization       =     5.04 Bohr mag/cell
     absolute magnetization    =     5.28 Bohr mag/cell

     iteration #  8     ecut=    30.00 Ry     beta= 0.50
     Davidson diagonalization with overlap
     ethr =  3.83E-06,  avg # of iterations =  1.5

     total cpu time spent up to now is       56.3 secs

     total energy              =    -111.57933639 Ry
     estimated scf accuracy    <       0.00001063 Ry

     total magnetization       =     5.02 Bohr mag/cell
     absolute magnetization    =     5.28 Bohr mag/cell

     iteration #  9     ecut=    30.00 Ry     beta= 0.50
     Davidson diagonalization with overlap
     ethr =  6.64E-08,  avg # of iterations =  5.8

     total cpu time spent up to now is       56.9 secs

     total energy              =    -111.57935685 Ry
     estimated scf accuracy    <       0.00001121 Ry

     total magnetization       =     5.02 Bohr mag/cell
     absolute magnetization    =     5.28 Bohr mag/cell

     iteration # 10     ecut=    30.00 Ry     beta= 0.50
     Davidson diagonalization with overlap
     ethr =  6.64E-08,  avg # of iterations =  1.3

     total cpu time spent up to now is       57.3 secs

     total energy              =    -111.57935611 Ry
     estimated scf accuracy    <       0.00000413 Ry

     total magnetization       =     5.02 Bohr mag/cell
     absolute magnetization    =     5.28 Bohr mag/cell

     iteration # 11     ecut=    30.00 Ry     beta= 0.50
     Davidson diagonalization with overlap
     ethr =  2.58E-08,  avg # of iterations =  2.3

     total cpu time spent up to now is       57.7 secs

     total energy              =    -111.57935699 Ry
     estimated scf accuracy    <       0.00000012 Ry

     total magnetization       =     5.02 Bohr mag/cell
     absolute magnetization    =     5.28 Bohr mag/cell

     iteration # 12     ecut=    30.00 Ry     beta= 0.50
     Davidson diagonalization with overlap
     ethr =  7.21E-10,  avg # of iterations =  7.0

     total cpu time spent up to now is       58.5 secs

     total energy              =    -111.57935733 Ry
     estimated scf accuracy    <       0.00000010 Ry

     total magnetization       =     5.02 Bohr mag/cell
     absolute magnetization    =     5.28 Bohr mag/cell

     iteration # 13     ecut=    30.00 Ry     beta= 0.50
     Davidson diagonalization with overlap
     ethr =  6.43E-10,  avg # of iterations =  1.1

     total cpu time spent up to now is       58.8 secs

     total energy              =    -111.57935732 Ry
     estimated scf accuracy    <       0.00000004 Ry

     total magnetization       =     5.02 Bohr mag/cell
     absolute magnetization    =     5.28 Bohr mag/cell

     iteration # 14     ecut=    30.00 Ry     beta= 0.50
     Davidson diagonalization with overlap
     ethr =  2.33E-10,  avg # of iterations =  2.5

     Magnetic moment per site  (integrated on atomic sphere of radius R)
     atom   1 (R=0.384)  charge=  6.5372  magn=  2.5626
     atom   2 (R=0.384)  charge=  6.5379  magn=  2.5628

     total cpu time spent up to now is       59.2 secs

     End of self-consistent calculation

 ------ SPIN UP ------------


          k = 0.0000 0.0000 0.0000 (   417 PWs)   bands (ev):

     4.5102   7.9149  10.0943  10.4312  10.4315  10.6578  10.6581  11.1769
    11.1771  11.9817  11.9817  12.1248

          k = 0.0000 0.0000 0.2046 (   440 PWs)   bands (ev):

     5.4227   7.3567   9.9456  10.3190  10.3815  10.3818  10.5129  10.5131
    11.4901  11.4902  11.8757  11.8757

          k = 0.0000 0.1774 0.0000 (   439 PWs)   bands (ev):

     5.2158   8.3730   9.9787  10.2227  10.3891  10.6132  10.7796  10.9790
    10.9983  11.0028  12.0271  14.4439

          k = 0.0000 0.1774 0.2046 (   444 PWs)   bands (ev):

     6.0754   7.9009   9.6766   9.9564  10.1440  10.4823  10.6687  10.8109
    11.4249  11.4989  11.8770  12.5577

          k = 0.0000 0.3548 0.0000 (   457 PWs)   bands (ev):

     6.9909   8.7631   9.0593   9.9343  10.2465  10.5362  10.6643  11.4640
    11.6334  11.7572  12.0671  17.3732

          k = 0.0000 0.3548 0.2046 (   452 PWs)   bands (ev):

     7.4787   8.4528   9.1902   9.6466  10.3688  10.8177  10.9068  11.4356
    11.7283  11.7625  11.9728  13.8021

          k = 0.0000 0.5322 0.0000 (   456 PWs)   bands (ev):

     8.1819   8.4182   8.4977  10.1793  10.4309  10.4923  10.7863  12.0697
    12.3892  12.4735  13.4291  17.7015

          k = 0.0000 0.5322 0.2046 (   451 PWs)   bands (ev):

     7.9179   8.2793   9.0634   9.2322  10.7889  11.1368  11.5920  12.2411
    12.4215  12.4714  13.0417  15.4237

          k = 0.1536 0.2661 0.0000 (   450 PWs)   bands (ev):

     6.4982   8.9970   9.3653   9.5986  10.2654  10.4442  10.7999  10.9572
    11.4829  11.7440  11.9916  16.5668

          k = 0.1536 0.2661 0.2046 (   445 PWs)   bands (ev):

     7.1750   8.5758   9.3434   9.7558  10.0029  10.2261  10.8973  11.2672
    11.6338  11.7411  11.9956  13.4855

          k = 0.1536 0.4435 0.0000 (   447 PWs)   bands (ev):

     8.2426   8.7463   8.8783   9.7620  10.1102  10.4936  10.5545  11.5119
    11.9333  12.2797  13.1862  19.4289

          k = 0.1536 0.4435 0.2046 (   451 PWs)   bands (ev):

     8.2039   8.6005   9.1888   9.6066  10.2766  10.6373  10.9196  11.4008
    11.8584  12.4211  13.3425  15.3178

          k = 0.1536 0.6209 0.0000 (   454 PWs)   bands (ev):

     8.5441   8.5944   8.7016  10.1151  10.2215  10.3592  10.7643  11.9081
    12.2253  12.3746  15.3388  16.9675

          k = 0.1536 0.6209 0.2046 (   452 PWs)   bands (ev):

     8.2079   8.5966   9.1967   9.4095  10.1893  11.1146  11.3057  11.5993
    12.2067  12.3925  15.5011  16.5091

          k = 0.3073 0.5322 0.0000 (   452 PWs)   bands (ev):

     8.7221   9.1442   9.3714   9.4819   9.9299  10.1713  10.7982  11.7387
    11.7391  12.2967  15.7902  19.7598

          k = 0.3073 0.5322 0.2046 (   452 PWs)   bands (ev):

     8.7879   8.9950   9.3873   9.6437   9.9203  10.2464  10.8581  11.2378
    12.0310  12.3814  16.3431  18.1946

          k = 0.1536-0.0887-0.0000 (   439 PWs)   bands (ev):

     5.2157   8.3730   9.9786  10.2227  10.3889  10.6131  10.7798  10.9791
    10.9984  11.0027  12.0272  14.4438

          k = 0.1536-0.0887 0.2046 (   444 PWs)   bands (ev):

     6.0753   7.9009   9.6765   9.9564  10.1439  10.4822  10.6688  10.8111
    11.4251  11.4988  11.8771  12.5576

          k = 0.3073-0.1774-0.0000 (   457 PWs)   bands (ev):

     6.9908   8.7631   9.0594   9.9342  10.2463  10.5361  10.6644  11.4640
    11.6335  11.7572  12.0672  17.3730

          k = 0.3073-0.1774 0.2046 (   452 PWs)   bands (ev):

     7.4786   8.4527   9.1902   9.6466  10.3686  10.8176  10.9069  11.4357
    11.7283  11.7625  11.9728  13.8020

          k = 0.4609-0.2661-0.0000 (   456 PWs)   bands (ev):

     8.1820   8.4183   8.4977  10.1792  10.4311  10.4922  10.7861  12.0698
    12.3891  12.4734  13.4289  17.7010

          k = 0.4609-0.2661 0.2046 (   451 PWs)   bands (ev):

     7.9178   8.2793   9.0634   9.2322  10.7891  11.1367  11.5921  12.2411
    12.4214  12.4713  13.0414  15.4233

          k = 0.3073-0.0000-0.0000 (   450 PWs)   bands (ev):

     6.4981   8.9970   9.3653   9.5986  10.2654  10.4442  10.7999  10.9573
    11.4829  11.7440  11.9915  16.5666

          k = 0.3073-0.0000-0.2046 (   445 PWs)   bands (ev):

     7.1750   8.5758   9.3434   9.7558  10.0028  10.2261  10.8973  11.2672
    11.6338  11.7411  11.9956  13.4855

          k = 0.3073-0.3548-0.0000 (   447 PWs)   bands (ev):

     8.2426   8.7464   8.8784   9.7618  10.1101  10.4935  10.5546  11.5119
    11.9333  12.2797  13.1862  19.4286

          k = 0.4609-0.0887-0.0000 (   447 PWs)   bands (ev):

     8.2425   8.7464   8.8784   9.7619  10.1102  10.4935  10.5545  11.5119
    11.9333  12.2795  13.1859  19.4287

          k = 0.3073-0.3548 0.2046 (   451 PWs)   bands (ev):

     8.2039   8.6005   9.1889   9.6066  10.2766  10.6371  10.9196  11.4008
    11.8584  12.4211  13.3425  15.3177

          k = 0.4609-0.0887-0.2046 (   451 PWs)   bands (ev):

     8.2038   8.6005   9.1889   9.6066  10.2765  10.6372  10.9197  11.4008
    11.8584  12.4209  13.3423  15.3176

          k = 0.4609-0.4435-0.0000 (   454 PWs)   bands (ev):

     8.5441   8.5945   8.7017  10.1150  10.2217  10.3589  10.7641  11.9081
    12.2252  12.3745  15.3385  16.9670

          k = 0.4609-0.4435 0.2046 (   452 PWs)   bands (ev):

     8.2079   8.5967   9.1967   9.4096  10.1894  11.1146  11.3056  11.5992
    12.2066  12.3925  15.5008  16.5087

          k = 0.6146-0.0000-0.0000 (   452 PWs)   bands (ev):

     8.7221   9.1443   9.3715   9.4817   9.9300  10.1712  10.7982  11.7387
    11.7391  12.2965  15.7897  19.7601

          k = 0.6146-0.0000-0.2046 (   452 PWs)   bands (ev):

     8.7879   8.9950   9.3874   9.6437   9.9203  10.2463  10.8581  11.2378
    12.0310  12.3813  16.3426  18.1944

 ------ SPIN DOWN ----------


          k = 0.0000 0.0000 0.0000 (   417 PWs)   bands (ev):

     4.6518   9.1740  12.1773  12.3760  13.0039  13.0045  13.2938  13.2943
    14.3311  14.3313  15.2856  15.2856

          k = 0.0000 0.0000 0.2046 (   440 PWs)   bands (ev):

     5.5766   7.8514  11.7544  12.0970  12.9809  12.9814  13.1361  13.1366
    14.6748  14.6749  15.1441  15.1442

          k = 0.0000 0.1774 0.0000 (   439 PWs)   bands (ev):

     5.3648   9.7270  11.6074  12.3067  12.8689  13.1150  13.4018  13.6609
    13.9720  14.0984  15.3493  16.4975

          k = 0.0000 0.1774 0.2046 (   444 PWs)   bands (ev):

     6.2514   8.4380  11.5495  12.1848  12.6147  12.9266  13.3394  13.4866
    14.5470  14.5496  15.1345  15.4743

          k = 0.0000 0.3548 0.0000 (   457 PWs)   bands (ev):

     7.2751  10.5660  10.9018  11.9102  12.4994  13.2895  13.6727  13.8843
    14.3999  14.5621  15.4042  18.9208

          k = 0.0000 0.3548 0.2046 (   452 PWs)   bands (ev):

     7.9688   9.5876  11.2499  11.9428  12.3428  12.8968  13.8895  14.3123
    14.5425  14.6482  15.1170  16.1152

          k = 0.0000 0.5322 0.0000 (   456 PWs)   bands (ev):

     9.3591  10.2855  10.5778  11.8246  12.7537  12.8794  13.3794  15.3195
    15.4086  15.4133  15.5472  18.8751

          k = 0.0000 0.5322 0.2046 (   451 PWs)   bands (ev):

     9.4338   9.9545  11.0879  11.4243  13.0273  13.8017  13.8079  14.7735
    15.1061  15.3608  15.4340  16.7518

          k = 0.1536 0.2661 0.0000 (   450 PWs)   bands (ev):

     6.6931  10.5618  11.0894  11.8197  12.6718  13.2487  13.3510  13.9133
    14.1793  14.4506  15.3049  18.2558

          k = 0.1536 0.2661 0.2046 (   445 PWs)   bands (ev):

     7.4749   9.3730  11.3789  12.0459  12.3064  12.5981  13.7861  14.0636
    14.5548  14.6050  15.0836  15.9964

          k = 0.1536 0.4435 0.0000 (   447 PWs)   bands (ev):

     8.8471  10.7707  10.8111  11.5342  12.7363  12.8284  13.3877  14.0758
    15.1025  15.2327  15.7258  20.4353

          k = 0.1536 0.4435 0.2046 (   451 PWs)   bands (ev):

     9.2671  10.1894  11.2157  11.7197  12.3749  12.7364  13.6503  14.4210
    14.6980  15.3521  15.8163  17.0281

          k = 0.1536 0.6209 0.0000 (   454 PWs)   bands (ev):

    10.1720  10.4328  10.7089  11.6187  12.6647  13.0309  13.0589  15.0063
    15.1910  15.2002  17.0871  18.5208

          k = 0.1536 0.6209 0.2046 (   452 PWs)   bands (ev):

     9.9849  10.3412  11.2960  11.4838  12.4959  13.0988  13.8465  14.5472
    15.0277  15.2721  16.9865  17.8993

          k = 0.3073 0.5322 0.0000 (   452 PWs)   bands (ev):

    10.5576  10.9566  11.0165  11.1584  12.5696  12.7971  13.1768  14.3717
    14.9925  15.0611  17.6282  20.7879

          k = 0.3073 0.5322 0.2046 (   452 PWs)   bands (ev):

    10.6856  10.8121  11.2665  11.6697  12.1126  12.3315  13.4205  14.2436
    14.8279  15.2582  18.0324  19.4067

          k = 0.1536-0.0887-0.0000 (   439 PWs)   bands (ev):

     5.3647   9.7270  11.6074  12.3065  12.8686  13.1148  13.4022  13.6612
    13.9718  14.0986  15.3493  16.4974

          k = 0.1536-0.0887 0.2046 (   444 PWs)   bands (ev):

     6.2514   8.4380  11.5494  12.1847  12.6143  12.9263  13.3398  13.4870
    14.5471  14.5495  15.1346  15.4742

          k = 0.3073-0.1774-0.0000 (   457 PWs)   bands (ev):

     7.2749  10.5659  10.9018  11.9100  12.4992  13.2893  13.6730  13.8843
    14.4002  14.5623  15.4043  18.9206

          k = 0.3073-0.1774 0.2046 (   452 PWs)   bands (ev):

     7.9687   9.5875  11.2498  11.9426  12.3426  12.8966  13.8898  14.3126
    14.5425  14.6484  15.1172  16.1152

          k = 0.4609-0.2661-0.0000 (   456 PWs)   bands (ev):

     9.3589  10.2855  10.5779  11.8243  12.7535  12.8791  13.3797  15.3196
    15.4087  15.4133  15.5471  18.8747

          k = 0.4609-0.2661 0.2046 (   451 PWs)   bands (ev):

     9.4337   9.9544  11.0878  11.4242  13.0270  13.8019  13.8075  14.7737
    15.1061  15.3609  15.4341  16.7516

          k = 0.3073-0.0000-0.0000 (   450 PWs)   bands (ev):

     6.6930  10.5617  11.0894  11.8195  12.6716  13.2486  13.3510  13.9133
    14.1795  14.4508  15.3049  18.2557

          k = 0.3073-0.0000-0.2046 (   445 PWs)   bands (ev):

     7.4748   9.3730  11.3789  12.0457  12.3063  12.5979  13.7863  14.0638
    14.5548  14.6052  15.0836  15.9964

          k = 0.3073-0.3548-0.0000 (   447 PWs)   bands (ev):

     8.8470  10.7707  10.8111  11.5341  12.7361  12.8283  13.3879  14.0759
    15.1026  15.2328  15.7259  20.4351

          k = 0.4609-0.0887-0.0000 (   447 PWs)   bands (ev):

     8.8469  10.7708  10.8111  11.5341  12.7361  12.8284  13.3878  14.0758
    15.1026  15.2327  15.7258  20.4351

          k = 0.3073-0.3548 0.2046 (   451 PWs)   bands (ev):

     9.2670  10.1893  11.2157  11.7196  12.3747  12.7362  13.6504  14.4211
    14.6980  15.3522  15.8163  17.0280

          k = 0.4609-0.0887-0.2046 (   451 PWs)   bands (ev):

     9.2669  10.1893  11.2157  11.7196  12.3747  12.7362  13.6504  14.4211
    14.6981  15.3521  15.8163  17.0280

          k = 0.4609-0.4435-0.0000 (   454 PWs)   bands (ev):

    10.1720  10.4328  10.7090  11.6185  12.6645  13.0306  13.0592  15.0063
    15.1910  15.2003  17.0870  18.5204

          k = 0.4609-0.4435 0.2046 (   452 PWs)   bands (ev):

     9.9849  10.3411  11.2959  11.4838  12.4958  13.0986  13.8465  14.5473
    15.0277  15.2721  16.9864  17.8990

          k = 0.6146-0.0000-0.0000 (   452 PWs)   bands (ev):

    10.5574  10.9566  11.0166  11.1584  12.5698  12.7969  13.1767  14.3717
    14.9925  15.0611  17.6278  20.7882

          k = 0.6146-0.0000-0.2046 (   452 PWs)   bands (ev):

    10.6855  10.8121  11.2665  11.6697  12.1125  12.3315  13.4205  14.2436
    14.8279  15.2582  18.0322  19.4066

     the Fermi energy is    12.9384 ev

!    total energy              =    -111.57935733 Ry
     estimated scf accuracy    <          6.2E-10 Ry
     smearing contrib. (-TS)   =       0.00035643 Ry
     internal energy E=F+TS    =    -111.57971376 Ry

     The total energy is F=E-TS. E is the sum of the following terms:
     one-electron contribution =      12.97071773 Ry
     hartree contribution      =      13.74384933 Ry
     xc contribution           =     -52.91414901 Ry
     ewald contribution        =     -85.38013182 Ry

     total magnetization       =     5.02 Bohr mag/cell
     absolute magnetization    =     5.28 Bohr mag/cell

     convergence has been achieved in  14 iterations

     Forces acting on atoms (cartesian axes, Ry/au):

     atom    1 type  1   force =    -0.00000000   -0.00000359   -0.00000000
     atom    2 type  1   force =     0.00000000    0.00000359    0.00000000

     Total force =     0.000005     Total SCF correction =     0.000003
     SCF correction compared to forces is large: reduce conv_thr to get better values


     Computing stress (Cartesian axis) and pressure

          total   stress  (Ry/bohr**3)                   (kbar)     P=       -1.03
  -0.00001277  -0.00000000   0.00000000           -1.88       -0.00        0.00
  -0.00000000  -0.00001322   0.00000000           -0.00       -1.94        0.00
   0.00000000   0.00000000   0.00000492            0.00        0.00        0.72

     Message from routine punch:
     Nothing written, as per user request (disk_io='none')

     init_run     :      0.86s CPU      0.88s WALL (       2 calls)
     electrons    :     47.48s CPU     53.14s WALL (      11 calls)
     update_pot   :      0.19s CPU      0.19s WALL (       9 calls)
     forces       :      0.78s CPU      0.79s WALL (      11 calls)
     stress       :      4.06s CPU      4.19s WALL (      11 calls)

     Called by init_run:
     wfcinit      :      0.23s CPU      0.24s WALL (       2 calls)
     potinit      :      0.16s CPU      0.16s WALL (       2 calls)
     hinit0       :      0.39s CPU      0.40s WALL (       2 calls)

     Called by electrons:
     c_bands      :     34.58s CPU     39.18s WALL (     101 calls)
     sum_band     :      8.75s CPU      9.61s WALL (     101 calls)
     v_of_rho     :      1.82s CPU      1.86s WALL (     108 calls)
     newd         :      2.54s CPU      2.63s WALL (     108 calls)
     mix_rho      :      0.13s CPU      0.13s WALL (     101 calls)

     Called by c_bands:
     init_us_2    :      0.81s CPU      0.93s WALL (   14464 calls)
     cegterg      :     32.21s CPU     36.50s WALL (    6464 calls)

     Called by *egterg:
     cdiaghg      :      2.91s CPU      3.28s WALL (   24552 calls)
     h_psi        :     26.06s CPU     29.58s WALL (   25512 calls)
     s_psi        :      0.51s CPU      0.59s WALL (   25512 calls)
     g_psi        :      0.15s CPU      0.16s WALL (   18920 calls)

     Called by h_psi:
     h_psi:calbec :      0.96s CPU      1.09s WALL (   25512 calls)
     vloc_psi     :     24.36s CPU     27.66s WALL (   25512 calls)
     add_vuspsi   :      0.55s CPU      0.63s WALL (   25512 calls)

     General routines
     calbec       :      1.69s CPU      1.93s WALL (   43944 calls)
     fft          :      0.96s CPU      0.99s WALL (    3135 calls)
     ffts         :      0.14s CPU      0.14s WALL (     418 calls)
     fftw         :     24.66s CPU     28.17s WALL (  522826 calls)
     interpolate  :      0.19s CPU      0.19s WALL (     216 calls)

     Parallel routines

     PWSCF        :     53.72s CPU     59.58s WALL


   This run was terminated on:  17:54:10  20Oct2025            

=------------------------------------------------------------------------------=
   JOB DONE.
=------------------------------------------------------------------------------=
