
     Program PWSCF v.7.4.1 starts on 21Oct2025 at  0:43: 9 

     This program is part of the open-source Quantum ESPRESSO suite
     for quantum simulation of materials; please cite
         "P. Giannozzi et al., J. Phys.:Condens. Matter 21 395502 (2009);
         "P. Giannozzi et al., J. Phys.:Condens. Matter 29 465901 (2017);
         "P. Giannozzi et al., J. Chem. Phys. 152 154105 (2020);
          URL http://www.quantum-espresso.org", 
     in publications or presentations arising from this work. More details at
     http://www.quantum-espresso.org/quote

     Parallel version (MPI), running on     2 processors

     MPI processes distributed on     1 nodes
     143 MiB available memory on the printing compute node when the environment starts

     Waiting for input...
     Reading input from standard input
Warning: card &CELL ignored
Warning: card / ignored

     Current dimensions of program PWSCF are:
     Max number of different atomic species (ntypx) = 10
     Max number of k-points (npk) =  40000
     Max angular momentum in pseudopotentials (lmaxx) =  4
     file Fe.pbe-nd-rrkjus.UPF: wavefunction(s)  4S renormalized
     Message from routine setup:
     using ibrav=0 with symmetry is DISCOURAGED, use correct ibrav instead

     R & G space division:  proc/nbgrp/npool/nimage =       2
     Subspace diagonalization in iterative solution of the eigenvalue problem:
     a serial algorithm will be used


     Parallelization info
     --------------------
     sticks:   dense  smooth     PW     G-vecs:    dense   smooth      PW
     Min         369     145     64                 6347     1575     467
     Max         370     146     65                 6348     1576     468
     Sum         739     291    129                12695     3151     935

     Using Slab Decomposition



     bravais-lattice index     =            0
     lattice parameter (alat)  =       5.7279  a.u.
     unit-cell volume          =     144.6674 (a.u.)^3
     number of atoms/cell      =            1
     number of atomic types    =            1
     number of electrons       =         8.00
     number of Kohn-Sham states=            8
     kinetic-energy cutoff     =      30.0000  Ry
     charge density cutoff     =     300.0000  Ry
     scf convergence threshold =      1.0E-07
     mixing beta               =       0.5000
     number of iterations used =            8  plain     mixing
     Exchange-correlation=  SLA  PW   PBE  PBE
                           (   1   4   3   4   0   0   0)

     celldm(1)=   5.727928  celldm(2)=   0.000000  celldm(3)=   0.000000
     celldm(4)=   0.000000  celldm(5)=   0.000000  celldm(6)=   0.000000

     crystal axes: (cart. coord. in units of alat)
               a(1) = (  -0.577350   0.577350   0.577350 )  
               a(2) = (   0.577350  -0.577350   0.577350 )  
               a(3) = (   0.577350   0.577350  -0.577350 )  

     reciprocal axes: (cart. coord. in units 2 pi/alat)
               b(1) = (  0.000000  0.866025  0.866025 )  
               b(2) = (  0.866025  0.000000  0.866025 )  
               b(3) = (  0.866025  0.866025  0.000000 )  


     PseudoPot. # 1 for Fe read from file:
     /home/bond/Software/QE/qe-7.4.1/pseudo/Fe.pbe-nd-rrkjus.UPF
     MD5 check sum: 398036227a04b607635f6f5e8dfd8242
     Pseudo is Ultrasoft + core correction, Zval =  8.0
     Generated by new atomic code, or converted to UPF format
     Using radial grid of  957 points,  6 beta functions with: 
                l(1) =   0
                l(2) =   0
                l(3) =   1
                l(4) =   1
                l(5) =   2
                l(6) =   2
     Q(r) pseudized with 0 coefficients 


     atomic species   valence    mass     pseudopotential
     Fe                8.00    55.84500     Fe( 1.00)

     Starting magnetic structure 
     atomic species   magnetization
     Fe              0.700

     48 Sym. Ops., with inversion, found



   Cartesian axes

     site n.     atom                  positions (alat units)
         1        Fe     tau(   1) = (   0.0000000   0.0000000   0.0000000  )

     number of k points=   104  Methfessel-Paxton smearing, width (Ry)=  0.0200

     Number of k-points >= 100: set verbosity='high' to print them.

     Dense  grid:    12695 G-vectors     FFT dimensions: (  32,  32,  32)

     Smooth grid:     3151 G-vectors     FFT dimensions: (  20,  20,  20)

     Estimated max dynamical RAM per process >      32.45 MB

     Estimated total dynamical RAM >      64.91 MB

     Check: negative core charge=   -0.000024
     Generating pointlists ...
     new r_m :   0.4125 (alat units)  2.3628 (a.u.) for type    1

     Initial potential from superposition of free atoms

     starting charge       7.9994, renormalised to       8.0000
     Starting wfcs are    6 randomized atomic wfcs +    2 random wfcs

     total cpu time spent up to now is        1.1 secs

     Self-consistent Calculation

     iteration #  1     ecut=    30.00 Ry     beta= 0.50
     Davidson diagonalization with overlap
     ethr =  1.00E-02,  avg # of iterations =  4.5

     total cpu time spent up to now is        2.5 secs

     total energy              =     -55.51040029 Ry
     estimated scf accuracy    <       0.43607532 Ry

     total magnetization       =     3.85 Bohr mag/cell
     absolute magnetization    =     3.85 Bohr mag/cell

     iteration #  2     ecut=    30.00 Ry     beta= 0.50
     Davidson diagonalization with overlap
     ethr =  5.45E-03,  avg # of iterations =  2.0

     total cpu time spent up to now is        3.6 secs

     total energy              =     -55.64659815 Ry
     estimated scf accuracy    <       0.30756931 Ry

     total magnetization       =     3.06 Bohr mag/cell
     absolute magnetization    =     3.07 Bohr mag/cell

     iteration #  3     ecut=    30.00 Ry     beta= 0.50
     Davidson diagonalization with overlap
     ethr =  3.84E-03,  avg # of iterations =  1.0

     total cpu time spent up to now is        4.4 secs

     total energy              =     -55.69988014 Ry
     estimated scf accuracy    <       0.00447164 Ry

     total magnetization       =     3.33 Bohr mag/cell
     absolute magnetization    =     3.39 Bohr mag/cell

     iteration #  4     ecut=    30.00 Ry     beta= 0.50
     Davidson diagonalization with overlap
     ethr =  5.59E-05,  avg # of iterations =  3.5

     total cpu time spent up to now is        5.5 secs

     total energy              =     -55.70486308 Ry
     estimated scf accuracy    <       0.00102735 Ry

     total magnetization       =     3.17 Bohr mag/cell
     absolute magnetization    =     3.37 Bohr mag/cell

     iteration #  5     ecut=    30.00 Ry     beta= 0.50
     Davidson diagonalization with overlap
     ethr =  1.28E-05,  avg # of iterations =  3.4

     total cpu time spent up to now is        6.5 secs

     total energy              =     -55.70561914 Ry
     estimated scf accuracy    <       0.00027237 Ry

     total magnetization       =     3.08 Bohr mag/cell
     absolute magnetization    =     3.36 Bohr mag/cell

     iteration #  6     ecut=    30.00 Ry     beta= 0.50
     Davidson diagonalization with overlap
     ethr =  3.40E-06,  avg # of iterations =  4.0

     total cpu time spent up to now is        7.7 secs

     total energy              =     -55.70576408 Ry
     estimated scf accuracy    <       0.00051550 Ry

     total magnetization       =     3.09 Bohr mag/cell
     absolute magnetization    =     3.40 Bohr mag/cell

     iteration #  7     ecut=    30.00 Ry     beta= 0.50
     Davidson diagonalization with overlap
     ethr =  3.40E-06,  avg # of iterations =  1.4

     total cpu time spent up to now is        8.5 secs

     total energy              =     -55.70582822 Ry
     estimated scf accuracy    <       0.00001976 Ry

     total magnetization       =     3.07 Bohr mag/cell
     absolute magnetization    =     3.39 Bohr mag/cell

     iteration #  8     ecut=    30.00 Ry     beta= 0.50
     Davidson diagonalization with overlap
     ethr =  2.47E-07,  avg # of iterations =  2.5

     total cpu time spent up to now is        9.5 secs

     total energy              =     -55.70582802 Ry
     estimated scf accuracy    <       0.00001317 Ry

     total magnetization       =     3.07 Bohr mag/cell
     absolute magnetization    =     3.40 Bohr mag/cell

     iteration #  9     ecut=    30.00 Ry     beta= 0.50
     Davidson diagonalization with overlap
     ethr =  1.65E-07,  avg # of iterations =  1.9

     total cpu time spent up to now is       10.3 secs

     total energy              =     -55.70583135 Ry
     estimated scf accuracy    <       0.00000037 Ry

     total magnetization       =     3.07 Bohr mag/cell
     absolute magnetization    =     3.39 Bohr mag/cell

     iteration # 10     ecut=    30.00 Ry     beta= 0.50
     Davidson diagonalization with overlap
     ethr =  4.57E-09,  avg # of iterations =  5.1

     total cpu time spent up to now is       11.7 secs

     total energy              =     -55.70583175 Ry
     estimated scf accuracy    <       0.00000025 Ry

     total magnetization       =     3.07 Bohr mag/cell
     absolute magnetization    =     3.39 Bohr mag/cell

     iteration # 11     ecut=    30.00 Ry     beta= 0.50
     Davidson diagonalization with overlap
     ethr =  3.11E-09,  avg # of iterations =  1.8

     Magnetic moment per site  (integrated on atomic sphere of radius R)
     atom   1 (R=0.413)  charge=  6.8411  magn=  3.2221

     total cpu time spent up to now is       12.6 secs

     End of self-consistent calculation

     Number of k-points >= 100: set verbosity='high' to print the bands.

     the Fermi energy is     5.8770 ev

!    total energy              =     -55.70583182 Ry
     estimated scf accuracy    <       0.00000005 Ry
     smearing contrib. (-TS)   =      -0.00042905 Ry
     internal energy E=F+TS    =     -55.70540277 Ry

     The total energy is F=E-TS. E is the sum of the following terms:
     one-electron contribution =      -4.37025476 Ry
     hartree contribution      =      10.14644192 Ry
     xc contribution           =     -26.26697221 Ry
     ewald contribution        =     -35.21461772 Ry

     total magnetization       =     3.07 Bohr mag/cell
     absolute magnetization    =     3.39 Bohr mag/cell

     convergence has been achieved in  11 iterations

     Forces acting on atoms (cartesian axes, Ry/au):

     atom    1 type  1   force =     0.00000000    0.00000000    0.00000000

     Total force =     0.000000     Total SCF correction =     0.000000


     Computing stress (Cartesian axis) and pressure

          total   stress  (Ry/bohr**3)                   (kbar)     P=     -255.09
  -0.00173404  -0.00000000  -0.00000000         -255.09       -0.00       -0.00
  -0.00000000  -0.00173404  -0.00000000           -0.00     -255.09       -0.00
  -0.00000000  -0.00000000  -0.00173404           -0.00       -0.00     -255.09

     Message from routine punch:
     Nothing written, as per user request (disk_io='none')

     init_run     :      0.90s CPU      0.97s WALL (       1 calls)
     electrons    :      9.96s CPU     11.41s WALL (       1 calls)
     forces       :      0.10s CPU      0.11s WALL (       1 calls)
     stress       :      0.59s CPU      0.60s WALL (       1 calls)

     Called by init_run:
     wfcinit      :      0.33s CPU      0.38s WALL (       1 calls)
     potinit      :      0.17s CPU      0.17s WALL (       1 calls)
     hinit0       :      0.34s CPU      0.34s WALL (       1 calls)

     Called by electrons:
     c_bands      :      7.73s CPU      9.00s WALL (      11 calls)
     sum_band     :      1.68s CPU      1.85s WALL (      11 calls)
     v_of_rho     :      0.26s CPU      0.27s WALL (      12 calls)
     newd         :      0.31s CPU      0.32s WALL (      12 calls)
     mix_rho      :      0.02s CPU      0.02s WALL (      11 calls)

     Called by c_bands:
     init_us_2    :      0.34s CPU      0.39s WALL (    5200 calls)
     cegterg      :      7.07s CPU      8.24s WALL (    2288 calls)

     Called by *egterg:
     cdiaghg      :      0.79s CPU      0.93s WALL (    8784 calls)
     h_psi        :      5.54s CPU      6.46s WALL (    8992 calls)
     s_psi        :      0.10s CPU      0.12s WALL (    8992 calls)
     g_psi        :      0.04s CPU      0.04s WALL (    6496 calls)

     Called by h_psi:
     h_psi:calbec :      0.30s CPU      0.35s WALL (    8992 calls)
     vloc_psi     :      5.02s CPU      5.85s WALL (    8992 calls)
     add_vuspsi   :      0.12s CPU      0.14s WALL (    8992 calls)

     General routines
     calbec       :      0.45s CPU      0.51s WALL (   14816 calls)
     fft          :      0.22s CPU      0.22s WALL (     338 calls)
     ffts         :      0.13s CPU      0.13s WALL (      46 calls)
     fftw         :      4.68s CPU      5.44s WALL (  115896 calls)
     interpolate  :      0.14s CPU      0.14s WALL (      24 calls)

     Parallel routines

     PWSCF        :     11.71s CPU     13.26s WALL


   This run was terminated on:   0:43:23  21Oct2025            

=------------------------------------------------------------------------------=
   JOB DONE.
=------------------------------------------------------------------------------=
