
     Program PWSCF v.7.4.1 starts on 20Oct2025 at 18:36:40 

     This program is part of the open-source Quantum ESPRESSO suite
     for quantum simulation of materials; please cite
         "P. Giannozzi et al., J. Phys.:Condens. Matter 21 395502 (2009);
         "P. Giannozzi et al., J. Phys.:Condens. Matter 29 465901 (2017);
         "P. Giannozzi et al., J. Chem. Phys. 152 154105 (2020);
          URL http://www.quantum-espresso.org", 
     in publications or presentations arising from this work. More details at
     http://www.quantum-espresso.org/quote

     Parallel version (MPI), running on     2 processors

     MPI processes distributed on     1 nodes
     311 MiB available memory on the printing compute node when the environment starts

     Waiting for input...
     Reading input from standard input

     Current dimensions of program PWSCF are:
     Max number of different atomic species (ntypx) = 10
     Max number of k-points (npk) =  40000
     Max angular momentum in pseudopotentials (lmaxx) =  4
     file Fe.pbe-nd-rrkjus.UPF: wavefunction(s)  4S renormalized
     Message from routine setup:
     using ibrav=0 with symmetry is DISCOURAGED, use correct ibrav instead

     R & G space division:  proc/nbgrp/npool/nimage =       2
     Subspace diagonalization in iterative solution of the eigenvalue problem:
     a serial algorithm will be used


     Parallelization info
     --------------------
     sticks:   dense  smooth     PW     G-vecs:    dense   smooth      PW
     Min         218      86     45                 2887      739     265
     Max         219      87     46                 2888      742     266
     Sum         437     173     91                 5775     1481     531

     Using Slab Decomposition



     bravais-lattice index     =            0
     lattice parameter (alat)  =       4.4187  a.u.
     unit-cell volume          =      66.4137 (a.u.)^3
     number of atoms/cell      =            1
     number of atomic types    =            1
     number of electrons       =         8.00
     number of Kohn-Sham states=            8
     kinetic-energy cutoff     =      30.0000  Ry
     charge density cutoff     =     300.0000  Ry
     scf convergence threshold =      1.0E-07
     mixing beta               =       0.5000
     number of iterations used =            8  plain     mixing
     energy convergence thresh.=      1.0E-04
     force convergence thresh. =      1.0E-03
     press convergence thresh. =      5.0E-01
     Exchange-correlation=  SLA  PW   PBE  PBE
                           (   1   4   3   4   0   0   0)
     nstep                     =           50


     celldm(1)=   4.418687  celldm(2)=   0.000000  celldm(3)=   0.000000
     celldm(4)=   0.000000  celldm(5)=   0.000000  celldm(6)=   0.000000

     crystal axes: (cart. coord. in units of alat)
               a(1) = (  -0.577350   0.577350   0.577350 )  
               a(2) = (   0.577350  -0.577350   0.577350 )  
               a(3) = (   0.577350   0.577350  -0.577350 )  

     reciprocal axes: (cart. coord. in units 2 pi/alat)
               b(1) = (  0.000000  0.866025  0.866025 )  
               b(2) = (  0.866025  0.000000  0.866025 )  
               b(3) = (  0.866025  0.866025  0.000000 )  


     PseudoPot. # 1 for Fe read from file:
     /home/bond/Software/QE/qe-7.4.1/pseudo/Fe.pbe-nd-rrkjus.UPF
     MD5 check sum: 398036227a04b607635f6f5e8dfd8242
     Pseudo is Ultrasoft + core correction, Zval =  8.0
     Generated by new atomic code, or converted to UPF format
     Using radial grid of  957 points,  6 beta functions with: 
                l(1) =   0
                l(2) =   0
                l(3) =   1
                l(4) =   1
                l(5) =   2
                l(6) =   2
     Q(r) pseudized with 0 coefficients 


     atomic species   valence    mass     pseudopotential
     Fe                8.00    55.84500     Fe( 1.00)

     Starting magnetic structure 
     atomic species   magnetization
     Fe              0.700

     48 Sym. Ops., with inversion, found



   Cartesian axes

     site n.     atom                  positions (alat units)
         1        Fe     tau(   1) = (   0.0000000   0.0000000   0.0000000  )

     number of k points=   145  Methfessel-Paxton smearing, width (Ry)=  0.0200

     Number of k-points >= 100: set verbosity='high' to print them.

     Dense  grid:     5775 G-vectors     FFT dimensions: (  25,  25,  25)

     Smooth grid:     1481 G-vectors     FFT dimensions: (  15,  15,  15)

     Estimated max dynamical RAM per process >      17.93 MB

     Estimated total dynamical RAM >      35.86 MB

     Check: negative core charge=   -0.000001
     Generating pointlists ...
     new r_m :   0.4125 (alat units)  1.8227 (a.u.) for type    1

     Initial potential from superposition of free atoms

     starting charge       7.9994, renormalised to       8.0000
     Starting wfcs are    6 randomized atomic wfcs +    2 random wfcs

     total cpu time spent up to now is        0.5 secs

     Self-consistent Calculation

     iteration #  1     ecut=    30.00 Ry     beta= 0.50
     Davidson diagonalization with overlap
     ethr =  1.00E-02,  avg # of iterations =  4.4

     total cpu time spent up to now is        1.2 secs

     total energy              =     -55.66752754 Ry
     estimated scf accuracy    <       0.29744864 Ry

     total magnetization       =     2.86 Bohr mag/cell
     absolute magnetization    =     2.86 Bohr mag/cell

     iteration #  2     ecut=    30.00 Ry     beta= 0.50
     Davidson diagonalization with overlap
     ethr =  3.72E-03,  avg # of iterations =  1.6

     total cpu time spent up to now is        1.5 secs

     total energy              =     -55.75819933 Ry
     estimated scf accuracy    <       0.03557600 Ry

     total magnetization       =     2.62 Bohr mag/cell
     absolute magnetization    =     2.63 Bohr mag/cell

     iteration #  3     ecut=    30.00 Ry     beta= 0.50
     Davidson diagonalization with overlap
     ethr =  4.45E-04,  avg # of iterations =  1.2

     total cpu time spent up to now is        1.9 secs

     total energy              =     -55.77970776 Ry
     estimated scf accuracy    <       0.01059799 Ry

     total magnetization       =     2.49 Bohr mag/cell
     absolute magnetization    =     2.51 Bohr mag/cell

     iteration #  4     ecut=    30.00 Ry     beta= 0.50
     Davidson diagonalization with overlap
     ethr =  1.32E-04,  avg # of iterations =  1.4

     total cpu time spent up to now is        2.2 secs

     total energy              =     -55.78730316 Ry
     estimated scf accuracy    <       0.00060667 Ry

     total magnetization       =     2.15 Bohr mag/cell
     absolute magnetization    =     2.25 Bohr mag/cell

     iteration #  5     ecut=    30.00 Ry     beta= 0.50
     Davidson diagonalization with overlap
     ethr =  7.58E-06,  avg # of iterations =  5.7

     total cpu time spent up to now is        2.8 secs

     total energy              =     -55.78679727 Ry
     estimated scf accuracy    <       0.00050025 Ry

     total magnetization       =     2.13 Bohr mag/cell
     absolute magnetization    =     2.24 Bohr mag/cell

     iteration #  6     ecut=    30.00 Ry     beta= 0.50
     Davidson diagonalization with overlap
     ethr =  6.25E-06,  avg # of iterations =  1.7

     total cpu time spent up to now is        3.1 secs

     total energy              =     -55.78815924 Ry
     estimated scf accuracy    <       0.00026557 Ry

     total magnetization       =     2.01 Bohr mag/cell
     absolute magnetization    =     2.12 Bohr mag/cell

     iteration #  7     ecut=    30.00 Ry     beta= 0.50
     Davidson diagonalization with overlap
     ethr =  3.32E-06,  avg # of iterations =  1.3

     total cpu time spent up to now is        3.5 secs

     total energy              =     -55.78825205 Ry
     estimated scf accuracy    <       0.00003141 Ry

     total magnetization       =     2.04 Bohr mag/cell
     absolute magnetization    =     2.14 Bohr mag/cell

     iteration #  8     ecut=    30.00 Ry     beta= 0.50
     Davidson diagonalization with overlap
     ethr =  3.93E-07,  avg # of iterations =  2.5

     total cpu time spent up to now is        3.9 secs

     total energy              =     -55.78826699 Ry
     estimated scf accuracy    <       0.00000986 Ry

     total magnetization       =     2.04 Bohr mag/cell
     absolute magnetization    =     2.13 Bohr mag/cell

     iteration #  9     ecut=    30.00 Ry     beta= 0.50
     Davidson diagonalization with overlap
     ethr =  1.23E-07,  avg # of iterations =  2.4

     total cpu time spent up to now is        4.3 secs

     total energy              =     -55.78827379 Ry
     estimated scf accuracy    <       0.00000452 Ry

     total magnetization       =     2.05 Bohr mag/cell
     absolute magnetization    =     2.14 Bohr mag/cell

     iteration # 10     ecut=    30.00 Ry     beta= 0.50
     Davidson diagonalization with overlap
     ethr =  5.65E-08,  avg # of iterations =  1.5

     total cpu time spent up to now is        4.6 secs

     total energy              =     -55.78827671 Ry
     estimated scf accuracy    <       0.00000014 Ry

     total magnetization       =     2.04 Bohr mag/cell
     absolute magnetization    =     2.14 Bohr mag/cell

     iteration # 11     ecut=    30.00 Ry     beta= 0.50
     Davidson diagonalization with overlap
     ethr =  1.74E-09,  avg # of iterations =  5.5

     Magnetic moment per site  (integrated on atomic sphere of radius R)
     atom   1 (R=0.413)  charge=  6.3580  magn=  2.0730

     total cpu time spent up to now is        5.2 secs

     End of self-consistent calculation

     Number of k-points >= 100: set verbosity='high' to print the bands.

     the Fermi energy is    16.3844 ev

!    total energy              =     -55.78827702 Ry
     estimated scf accuracy    <          4.4E-09 Ry
     smearing contrib. (-TS)   =      -0.00011850 Ry
     internal energy E=F+TS    =     -55.78815852 Ry

     The total energy is F=E-TS. E is the sum of the following terms:
     one-electron contribution =      10.65651822 Ry
     hartree contribution      =       5.74478083 Ry
     xc contribution           =     -26.54087905 Ry
     ewald contribution        =     -45.64857853 Ry

     total magnetization       =     2.04 Bohr mag/cell
     absolute magnetization    =     2.14 Bohr mag/cell

     convergence has been achieved in  11 iterations

     Forces acting on atoms (cartesian axes, Ry/au):

     atom    1 type  1   force =     0.00000000    0.00000000    0.00000000

     Total force =     0.000000     Total SCF correction =     0.000000


     Computing stress (Cartesian axis) and pressure

          total   stress  (Ry/bohr**3)                   (kbar)     P=      398.72
   0.00271043  -0.00000000  -0.00000000          398.72       -0.00       -0.00
  -0.00000000   0.00271043  -0.00000000           -0.00      398.72       -0.00
  -0.00000000  -0.00000000   0.00271043           -0.00       -0.00      398.72


     BFGS Geometry Optimization
     Energy error            =      3.3E-02 Ry
     Gradient error          =      0.0E+00 Ry/Bohr
     Cell gradient error     =      4.0E+02 kbar

     number of scf cycles    =   1
     number of bfgs steps    =   0

     enthalpy           new  =     -55.7882770194 Ry

     new trust radius        =       0.1104426346 bohr
     new conv_thr            =       0.0000001000 Ry

     new unit-cell volume =     80.84994 a.u.^3 (    11.98072 Ang^3 )
     density =      7.74017 g/cm^3

CELL_PARAMETERS (angstrom)
  -1.441476930   1.441476930   1.441476930
   1.441476930  -1.441476930   1.441476930
   1.441476930   1.441476930  -1.441476930

ATOMIC_POSITIONS (angstrom)
Fe               0.0000000000        0.0000000000        0.0000000000


     Message from routine punch:
     Nothing written, as per user request (disk_io='none')
     NEW-OLD atomic charge density approx. for the potential
     New effective cutoffs (rho, wfc):  260.70   26.31

     Check: negative core charge=   -0.000002
     Generating pointlists ...

     total cpu time spent up to now is        5.5 secs

     Self-consistent Calculation

     iteration #  1     ecut=    30.00 Ry     beta= 0.50
     Davidson diagonalization with overlap
     ethr =  1.00E-06,  avg # of iterations =  7.1

     total cpu time spent up to now is        6.4 secs

     total energy              =     -55.79919378 Ry
     estimated scf accuracy    <       0.00229615 Ry

     total magnetization       =     2.22 Bohr mag/cell
     absolute magnetization    =     2.34 Bohr mag/cell

     iteration #  2     ecut=    30.00 Ry     beta= 0.50
     Davidson diagonalization with overlap
     ethr =  2.87E-05,  avg # of iterations =  1.0

     total cpu time spent up to now is        6.7 secs

     total energy              =     -55.79999833 Ry
     estimated scf accuracy    <       0.00131698 Ry

     total magnetization       =     2.27 Bohr mag/cell
     absolute magnetization    =     2.40 Bohr mag/cell

     iteration #  3     ecut=    30.00 Ry     beta= 0.50
     Davidson diagonalization with overlap
     ethr =  1.65E-05,  avg # of iterations =  1.1

     total cpu time spent up to now is        7.0 secs

     total energy              =     -55.80040182 Ry
     estimated scf accuracy    <       0.00050448 Ry

     total magnetization       =     2.31 Bohr mag/cell
     absolute magnetization    =     2.44 Bohr mag/cell

     iteration #  4     ecut=    30.00 Ry     beta= 0.50
     Davidson diagonalization with overlap
     ethr =  6.31E-06,  avg # of iterations =  1.8

     total cpu time spent up to now is        7.3 secs

     total energy              =     -55.79937897 Ry
     estimated scf accuracy    <       0.00009492 Ry

     total magnetization       =     2.40 Bohr mag/cell
     absolute magnetization    =     2.55 Bohr mag/cell

     iteration #  5     ecut=    30.00 Ry     beta= 0.50
     Davidson diagonalization with overlap
     ethr =  1.19E-06,  avg # of iterations =  2.9

     total cpu time spent up to now is        7.8 secs

     total energy              =     -55.80074989 Ry
     estimated scf accuracy    <       0.00014190 Ry

     total magnetization       =     2.56 Bohr mag/cell
     absolute magnetization    =     2.74 Bohr mag/cell

     iteration #  6     ecut=    30.00 Ry     beta= 0.50
     Davidson diagonalization with overlap
     ethr =  1.19E-06,  avg # of iterations =  2.1

     total cpu time spent up to now is        8.2 secs

     total energy              =     -55.80117369 Ry
     estimated scf accuracy    <       0.00002418 Ry

     total magnetization       =     2.48 Bohr mag/cell
     absolute magnetization    =     2.64 Bohr mag/cell

     iteration #  7     ecut=    30.00 Ry     beta= 0.50
     Davidson diagonalization with overlap
     ethr =  3.02E-07,  avg # of iterations =  1.3

     total cpu time spent up to now is        8.5 secs

     total energy              =     -55.80118430 Ry
     estimated scf accuracy    <       0.00000691 Ry

     total magnetization       =     2.50 Bohr mag/cell
     absolute magnetization    =     2.66 Bohr mag/cell

     iteration #  8     ecut=    30.00 Ry     beta= 0.50
     Davidson diagonalization with overlap
     ethr =  8.64E-08,  avg # of iterations =  1.7

     total cpu time spent up to now is        8.9 secs

     total energy              =     -55.80120089 Ry
     estimated scf accuracy    <       0.00000017 Ry

     total magnetization       =     2.51 Bohr mag/cell
     absolute magnetization    =     2.68 Bohr mag/cell

     iteration #  9     ecut=    30.00 Ry     beta= 0.50
     Davidson diagonalization with overlap
     ethr =  2.10E-09,  avg # of iterations =  4.9

     Magnetic moment per site  (integrated on atomic sphere of radius R)
     atom   1 (R=0.413)  charge=  6.1539  magn=  2.5693

     total cpu time spent up to now is        9.4 secs

     End of self-consistent calculation

     Number of k-points >= 100: set verbosity='high' to print the bands.

     the Fermi energy is    12.6410 ev

!    total energy              =     -55.80120203 Ry
     estimated scf accuracy    <       0.00000005 Ry
     smearing contrib. (-TS)   =       0.00005734 Ry
     internal energy E=F+TS    =     -55.80125936 Ry

     The total energy is F=E-TS. E is the sum of the following terms:
     one-electron contribution =       6.60058491 Ry
     hartree contribution      =       6.80198664 Ry
     xc contribution           =     -26.45213665 Ry
     ewald contribution        =     -42.75169427 Ry

     total magnetization       =     2.51 Bohr mag/cell
     absolute magnetization    =     2.68 Bohr mag/cell

     convergence has been achieved in   9 iterations

     Forces acting on atoms (cartesian axes, Ry/au):

     atom    1 type  1   force =     0.00000000    0.00000000    0.00000000

     Total force =     0.000000     Total SCF correction =     0.000000


     Computing stress (Cartesian axis) and pressure

          total   stress  (Ry/bohr**3)                   (kbar)     P=      -27.26
  -0.00018528  -0.00000000  -0.00000000          -27.26       -0.00       -0.00
  -0.00000000  -0.00018528  -0.00000000           -0.00      -27.26       -0.00
  -0.00000000  -0.00000000  -0.00018528           -0.00       -0.00      -27.26

     Energy error            =      1.3E-02 Ry
     Gradient error          =      0.0E+00 Ry/Bohr
     Cell gradient error     =      2.7E+01 kbar

     number of scf cycles    =   2
     number of bfgs steps    =   1

     enthalpy           old  =     -55.7882770194 Ry
     enthalpy           new  =     -55.8012020253 Ry

     CASE: enthalpy          _new < enthalpy          _old

     new trust radius        =       0.0082514126 bohr
     new conv_thr            =       0.0000000010 Ry

     new unit-cell volume =     79.74213 a.u.^3 (    11.81656 Ang^3 )
     density =      7.84770 g/cm^3

CELL_PARAMETERS (angstrom)
  -1.434862900   1.434862900   1.434862900
   1.434862900  -1.434862900   1.434862900
   1.434862900   1.434862900  -1.434862900

ATOMIC_POSITIONS (angstrom)
Fe               0.0000000000        0.0000000000        0.0000000000


     Message from routine punch:
     Nothing written, as per user request (disk_io='none')
     NEW-OLD atomic charge density approx. for the potential
     New effective cutoffs (rho, wfc):  263.11   26.55

     Check: negative core charge=   -0.000002
     Generating pointlists ...

     total cpu time spent up to now is        9.7 secs

     Self-consistent Calculation

     iteration #  1     ecut=    30.00 Ry     beta= 0.50
     Davidson diagonalization with overlap
     ethr =  1.00E-06,  avg # of iterations =  3.6

     total cpu time spent up to now is       10.2 secs

     total energy              =     -55.80134727 Ry
     estimated scf accuracy    <       0.00002240 Ry

     total magnetization       =     2.49 Bohr mag/cell
     absolute magnetization    =     2.66 Bohr mag/cell

     iteration #  2     ecut=    30.00 Ry     beta= 0.50
     Davidson diagonalization with overlap
     ethr =  2.80E-07,  avg # of iterations =  1.0

     total cpu time spent up to now is       10.6 secs

     total energy              =     -55.80135120 Ry
     estimated scf accuracy    <       0.00001321 Ry

     total magnetization       =     2.49 Bohr mag/cell
     absolute magnetization    =     2.65 Bohr mag/cell

     iteration #  3     ecut=    30.00 Ry     beta= 0.50
     Davidson diagonalization with overlap
     ethr =  1.65E-07,  avg # of iterations =  1.5

     total cpu time spent up to now is       10.9 secs

     total energy              =     -55.80137274 Ry
     estimated scf accuracy    <       0.00000152 Ry

     total magnetization       =     2.47 Bohr mag/cell
     absolute magnetization    =     2.63 Bohr mag/cell

     iteration #  4     ecut=    30.00 Ry     beta= 0.50
     Davidson diagonalization with overlap
     ethr =  1.90E-08,  avg # of iterations =  2.1

     total cpu time spent up to now is       11.3 secs

     total energy              =     -55.80137417 Ry
     estimated scf accuracy    <       0.00000083 Ry

     total magnetization       =     2.46 Bohr mag/cell
     absolute magnetization    =     2.62 Bohr mag/cell

     iteration #  5     ecut=    30.00 Ry     beta= 0.50
     Davidson diagonalization with overlap
     ethr =  1.04E-08,  avg # of iterations =  1.9

     total cpu time spent up to now is       11.7 secs

     total energy              =     -55.80137733 Ry
     estimated scf accuracy    <       0.00000008 Ry

     total magnetization       =     2.45 Bohr mag/cell
     absolute magnetization    =     2.61 Bohr mag/cell

     iteration #  6     ecut=    30.00 Ry     beta= 0.50
     Davidson diagonalization with overlap
     ethr =  1.02E-09,  avg # of iterations =  2.6

     total cpu time spent up to now is       12.1 secs

     total energy              =     -55.80137744 Ry
     estimated scf accuracy    <       0.00000002 Ry

     total magnetization       =     2.45 Bohr mag/cell
     absolute magnetization    =     2.61 Bohr mag/cell

     iteration #  7     ecut=    30.00 Ry     beta= 0.50
     Davidson diagonalization with overlap
     ethr =  1.91E-10,  avg # of iterations =  3.0

     Magnetic moment per site  (integrated on atomic sphere of radius R)
     atom   1 (R=0.413)  charge=  6.1655  magn=  2.5047

     total cpu time spent up to now is       12.5 secs

     End of self-consistent calculation

     Number of k-points >= 100: set verbosity='high' to print the bands.

     the Fermi energy is    12.8488 ev

!    total energy              =     -55.80137752 Ry
     estimated scf accuracy    <          5.7E-10 Ry
     smearing contrib. (-TS)   =      -0.00003663 Ry
     internal energy E=F+TS    =     -55.80134089 Ry

     The total energy is F=E-TS. E is the sum of the following terms:
     one-electron contribution =       6.87682687 Ry
     hartree contribution      =       6.72234424 Ry
     xc contribution           =     -26.45175292 Ry
     ewald contribution        =     -42.94875908 Ry

     total magnetization       =     2.45 Bohr mag/cell
     absolute magnetization    =     2.61 Bohr mag/cell

     convergence has been achieved in   7 iterations

     Forces acting on atoms (cartesian axes, Ry/au):

     atom    1 type  1   force =     0.00000000    0.00000000    0.00000000

     Total force =     0.000000     Total SCF correction =     0.000000


     Computing stress (Cartesian axis) and pressure

          total   stress  (Ry/bohr**3)                   (kbar)     P=      -19.34
  -0.00013148   0.00000000   0.00000000          -19.34        0.00        0.00
   0.00000000  -0.00013148   0.00000000            0.00      -19.34        0.00
   0.00000000   0.00000000  -0.00013148            0.00        0.00      -19.34

     Energy error            =      1.8E-04 Ry
     Gradient error          =      0.0E+00 Ry/Bohr
     Cell gradient error     =      1.9E+01 kbar

     number of scf cycles    =   3
     number of bfgs steps    =   2

     enthalpy           old  =     -55.8012020253 Ry
     enthalpy           new  =     -55.8013775217 Ry

     CASE: enthalpy          _new < enthalpy          _old

     new trust radius        =       0.0123486909 bohr
     new conv_thr            =       0.0000000010 Ry

     new unit-cell volume =     78.09946 a.u.^3 (    11.57315 Ang^3 )
     density =      8.01276 g/cm^3

CELL_PARAMETERS (angstrom)
  -1.424941855   1.424941855   1.424941855
   1.424941855  -1.424941855   1.424941855
   1.424941855   1.424941855  -1.424941855

ATOMIC_POSITIONS (angstrom)
Fe               0.0000000000        0.0000000000        0.0000000000


     Message from routine punch:
     Nothing written, as per user request (disk_io='none')
     NEW-OLD atomic charge density approx. for the potential
     New effective cutoffs (rho, wfc):  266.79   26.93

     Check: negative core charge=   -0.000003
     Generating pointlists ...

     total cpu time spent up to now is       12.8 secs

     Self-consistent Calculation

     iteration #  1     ecut=    30.00 Ry     beta= 0.50
     Davidson diagonalization with overlap
     ethr =  1.00E-06,  avg # of iterations =  4.1

     total cpu time spent up to now is       13.4 secs

     total energy              =     -55.80142518 Ry
     estimated scf accuracy    <       0.00006063 Ry

     total magnetization       =     2.42 Bohr mag/cell
     absolute magnetization    =     2.57 Bohr mag/cell

     iteration #  2     ecut=    30.00 Ry     beta= 0.50
     Davidson diagonalization with overlap
     ethr =  7.58E-07,  avg # of iterations =  1.0

     total cpu time spent up to now is       13.7 secs

     total energy              =     -55.80142795 Ry
     estimated scf accuracy    <       0.00003800 Ry

     total magnetization       =     2.40 Bohr mag/cell
     absolute magnetization    =     2.56 Bohr mag/cell

     iteration #  3     ecut=    30.00 Ry     beta= 0.50
     Davidson diagonalization with overlap
     ethr =  4.75E-07,  avg # of iterations =  1.6

     total cpu time spent up to now is       14.1 secs

     total energy              =     -55.80150387 Ry
     estimated scf accuracy    <       0.00000376 Ry

     total magnetization       =     2.36 Bohr mag/cell
     absolute magnetization    =     2.52 Bohr mag/cell

     iteration #  4     ecut=    30.00 Ry     beta= 0.50
     Davidson diagonalization with overlap
     ethr =  4.70E-08,  avg # of iterations =  2.1

     total cpu time spent up to now is       14.4 secs

     total energy              =     -55.80151057 Ry
     estimated scf accuracy    <       0.00000111 Ry

     total magnetization       =     2.35 Bohr mag/cell
     absolute magnetization    =     2.51 Bohr mag/cell

     iteration #  5     ecut=    30.00 Ry     beta= 0.50
     Davidson diagonalization with overlap
     ethr =  1.38E-08,  avg # of iterations =  1.9

     total cpu time spent up to now is       14.8 secs

     total energy              =     -55.80151371 Ry
     estimated scf accuracy    <       0.00000004 Ry

     total magnetization       =     2.35 Bohr mag/cell
     absolute magnetization    =     2.50 Bohr mag/cell

     iteration #  6     ecut=    30.00 Ry     beta= 0.50
     Davidson diagonalization with overlap
     ethr =  4.68E-10,  avg # of iterations =  4.3

     total cpu time spent up to now is       15.4 secs

     total energy              =     -55.80151395 Ry
     estimated scf accuracy    <       0.00000001 Ry

     total magnetization       =     2.35 Bohr mag/cell
     absolute magnetization    =     2.50 Bohr mag/cell

     iteration #  7     ecut=    30.00 Ry     beta= 0.50
     Davidson diagonalization with overlap
     ethr =  1.56E-10,  avg # of iterations =  2.5

     Magnetic moment per site  (integrated on atomic sphere of radius R)
     atom   1 (R=0.413)  charge=  6.1833  magn=  2.3986

     total cpu time spent up to now is       15.8 secs

     End of self-consistent calculation

     Number of k-points >= 100: set verbosity='high' to print the bands.

     the Fermi energy is    13.1914 ev

!    total energy              =     -55.80151406 Ry
     estimated scf accuracy    <          3.2E-10 Ry
     smearing contrib. (-TS)   =      -0.00000182 Ry
     internal energy E=F+TS    =     -55.80151225 Ry

     The total energy is F=E-TS. E is the sum of the following terms:
     one-electron contribution =       7.29535286 Ry
     hartree contribution      =       6.60147471 Ry
     xc contribution           =     -26.45055339 Ry
     ewald contribution        =     -43.24778642 Ry

     total magnetization       =     2.35 Bohr mag/cell
     absolute magnetization    =     2.50 Bohr mag/cell

     convergence has been achieved in   7 iterations

     Forces acting on atoms (cartesian axes, Ry/au):

     atom    1 type  1   force =     0.00000000    0.00000000    0.00000000

     Total force =     0.000000     Total SCF correction =     0.000000


     Computing stress (Cartesian axis) and pressure

          total   stress  (Ry/bohr**3)                   (kbar)     P=       -3.35
  -0.00002276  -0.00000000  -0.00000000           -3.35       -0.00       -0.00
  -0.00000000  -0.00002276  -0.00000000           -0.00       -3.35       -0.00
  -0.00000000  -0.00000000  -0.00002276           -0.00       -0.00       -3.35

     Energy error            =      1.4E-04 Ry
     Gradient error          =      0.0E+00 Ry/Bohr
     Cell gradient error     =      3.3E+00 kbar

     number of scf cycles    =   4
     number of bfgs steps    =   3

     enthalpy           old  =     -55.8013775217 Ry
     enthalpy           new  =     -55.8015140613 Ry

     CASE: enthalpy          _new < enthalpy          _old

     new trust radius        =       0.0025331642 bohr
     new conv_thr            =       0.0000000010 Ry

     new unit-cell volume =     77.76414 a.u.^3 (    11.52346 Ang^3 )
     density =      8.04731 g/cm^3

CELL_PARAMETERS (angstrom)
  -1.422899616   1.422899616   1.422899616
   1.422899616  -1.422899616   1.422899616
   1.422899616   1.422899616  -1.422899616

ATOMIC_POSITIONS (angstrom)
Fe               0.0000000000        0.0000000000        0.0000000000


     Message from routine punch:
     Nothing written, as per user request (disk_io='none')
     NEW-OLD atomic charge density approx. for the potential
     New effective cutoffs (rho, wfc):  267.55   27.00

     Check: negative core charge=   -0.000003
     Generating pointlists ...

     total cpu time spent up to now is       16.0 secs

     Self-consistent Calculation

     iteration #  1     ecut=    30.00 Ry     beta= 0.50
     Davidson diagonalization with overlap
     ethr =  1.00E-06,  avg # of iterations =  2.8

     Threshold (ethr) on eigenvalues was too large:
     Diagonalizing with lowered threshold

     Davidson diagonalization with overlap
     ethr =  2.33E-08,  avg # of iterations =  1.6

     total cpu time spent up to now is       16.8 secs

     total energy              =     -55.80151291 Ry
     estimated scf accuracy    <       0.00000189 Ry

     total magnetization       =     2.34 Bohr mag/cell
     absolute magnetization    =     2.49 Bohr mag/cell

     iteration #  2     ecut=    30.00 Ry     beta= 0.50
     Davidson diagonalization with overlap
     ethr =  2.36E-08,  avg # of iterations =  1.0

     total cpu time spent up to now is       17.2 secs

     total energy              =     -55.80151342 Ry
     estimated scf accuracy    <       0.00000109 Ry

     total magnetization       =     2.34 Bohr mag/cell
     absolute magnetization    =     2.49 Bohr mag/cell

     iteration #  3     ecut=    30.00 Ry     beta= 0.50
     Davidson diagonalization with overlap
     ethr =  1.36E-08,  avg # of iterations =  1.5

     total cpu time spent up to now is       17.6 secs

     total energy              =     -55.80151474 Ry
     estimated scf accuracy    <       0.00000011 Ry

     total magnetization       =     2.33 Bohr mag/cell
     absolute magnetization    =     2.48 Bohr mag/cell

     iteration #  4     ecut=    30.00 Ry     beta= 0.50
     Davidson diagonalization with overlap
     ethr =  1.42E-09,  avg # of iterations =  1.3

     total cpu time spent up to now is       17.9 secs

     total energy              =     -55.80151473 Ry
     estimated scf accuracy    <       0.00000005 Ry

     total magnetization       =     2.33 Bohr mag/cell
     absolute magnetization    =     2.48 Bohr mag/cell

     iteration #  5     ecut=    30.00 Ry     beta= 0.50
     Davidson diagonalization with overlap
     ethr =  6.05E-10,  avg # of iterations =  2.1

     total cpu time spent up to now is       18.3 secs

     total energy              =     -55.80151489 Ry
     estimated scf accuracy    <          1.8E-09 Ry

     total magnetization       =     2.33 Bohr mag/cell
     absolute magnetization    =     2.48 Bohr mag/cell

     iteration #  6     ecut=    30.00 Ry     beta= 0.50
     Davidson diagonalization with overlap
     ethr =  2.27E-11,  avg # of iterations =  4.4

     Magnetic moment per site  (integrated on atomic sphere of radius R)
     atom   1 (R=0.413)  charge=  6.1873  magn=  2.3837

     total cpu time spent up to now is       18.8 secs

     End of self-consistent calculation

     Number of k-points >= 100: set verbosity='high' to print the bands.

     the Fermi energy is    13.2672 ev

!    total energy              =     -55.80151490 Ry
     estimated scf accuracy    <          6.5E-10 Ry
     smearing contrib. (-TS)   =       0.00001703 Ry
     internal energy E=F+TS    =     -55.80153193 Ry

     The total energy is F=E-TS. E is the sum of the following terms:
     one-electron contribution =       7.38255014 Ry
     hartree contribution      =       6.57727919 Ry
     xc contribution           =     -26.45150279 Ry
     ewald contribution        =     -43.30985848 Ry

     total magnetization       =     2.33 Bohr mag/cell
     absolute magnetization    =     2.48 Bohr mag/cell

     convergence has been achieved in   6 iterations

     Forces acting on atoms (cartesian axes, Ry/au):

     atom    1 type  1   force =     0.00000000    0.00000000    0.00000000

     Total force =     0.000000     Total SCF correction =     0.000000


     Computing stress (Cartesian axis) and pressure

          total   stress  (Ry/bohr**3)                   (kbar)     P=        2.93
   0.00001992  -0.00000000  -0.00000000            2.93       -0.00       -0.00
  -0.00000000   0.00001992  -0.00000000           -0.00        2.93       -0.00
  -0.00000000  -0.00000000   0.00001992           -0.00       -0.00        2.93

     Energy error            =      8.4E-07 Ry
     Gradient error          =      0.0E+00 Ry/Bohr
     Cell gradient error     =      2.9E+00 kbar

     number of scf cycles    =   5
     number of bfgs steps    =   4

     enthalpy           old  =     -55.8015140613 Ry
     enthalpy           new  =     -55.8015148973 Ry

     CASE: enthalpy          _new < enthalpy          _old

     new trust radius        =       0.0011796715 bohr
     new conv_thr            =       0.0000000010 Ry

     new unit-cell volume =     77.92029 a.u.^3 (    11.54660 Ang^3 )
     density =      8.03118 g/cm^3

CELL_PARAMETERS (angstrom)
  -1.423851351   1.423851351   1.423851351
   1.423851351  -1.423851351   1.423851351
   1.423851351   1.423851351  -1.423851351

ATOMIC_POSITIONS (angstrom)
Fe               0.0000000000        0.0000000000        0.0000000000


     Message from routine punch:
     Nothing written, as per user request (disk_io='none')
     NEW-OLD atomic charge density approx. for the potential
     New effective cutoffs (rho, wfc):  267.20   26.97

     Check: negative core charge=   -0.000003
     Generating pointlists ...

     total cpu time spent up to now is       19.0 secs

     Self-consistent Calculation

     iteration #  1     ecut=    30.00 Ry     beta= 0.50
     Davidson diagonalization with overlap
     ethr =  1.00E-06,  avg # of iterations =  2.4

     Threshold (ethr) on eigenvalues was too large:
     Diagonalizing with lowered threshold

     Davidson diagonalization with overlap
     ethr =  4.83E-09,  avg # of iterations =  2.0

     total cpu time spent up to now is       19.8 secs

     total energy              =     -55.80151567 Ry
     estimated scf accuracy    <       0.00000037 Ry

     total magnetization       =     2.33 Bohr mag/cell
     absolute magnetization    =     2.48 Bohr mag/cell

     iteration #  2     ecut=    30.00 Ry     beta= 0.50
     Davidson diagonalization with overlap
     ethr =  4.63E-09,  avg # of iterations =  1.0

     total cpu time spent up to now is       20.2 secs

     total energy              =     -55.80151583 Ry
     estimated scf accuracy    <       0.00000022 Ry

     total magnetization       =     2.34 Bohr mag/cell
     absolute magnetization    =     2.48 Bohr mag/cell

     iteration #  3     ecut=    30.00 Ry     beta= 0.50
     Davidson diagonalization with overlap
     ethr =  2.75E-09,  avg # of iterations =  1.5

     total cpu time spent up to now is       20.5 secs

     total energy              =     -55.80151599 Ry
     estimated scf accuracy    <       0.00000005 Ry

     total magnetization       =     2.34 Bohr mag/cell
     absolute magnetization    =     2.49 Bohr mag/cell

     iteration #  4     ecut=    30.00 Ry     beta= 0.50
     Davidson diagonalization with overlap
     ethr =  6.26E-10,  avg # of iterations =  1.5

     total cpu time spent up to now is       20.8 secs

     total energy              =     -55.80151601 Ry
     estimated scf accuracy    <       0.00000001 Ry

     total magnetization       =     2.34 Bohr mag/cell
     absolute magnetization    =     2.49 Bohr mag/cell

     iteration #  5     ecut=    30.00 Ry     beta= 0.50
     Davidson diagonalization with overlap
     ethr =  1.33E-10,  avg # of iterations =  2.3

     Magnetic moment per site  (integrated on atomic sphere of radius R)
     atom   1 (R=0.413)  charge=  6.1854  magn=  2.3904

     total cpu time spent up to now is       21.2 secs

     End of self-consistent calculation

     Number of k-points >= 100: set verbosity='high' to print the bands.

     the Fermi energy is    13.2316 ev

!    total energy              =     -55.80151606 Ry
     estimated scf accuracy    <          3.7E-10 Ry
     smearing contrib. (-TS)   =       0.00000850 Ry
     internal energy E=F+TS    =     -55.80152456 Ry

     The total energy is F=E-TS. E is the sum of the following terms:
     one-electron contribution =       7.34185290 Ry
     hartree contribution      =       6.58856047 Ry
     xc contribution           =     -26.45102873 Ry
     ewald contribution        =     -43.28090920 Ry

     total magnetization       =     2.34 Bohr mag/cell
     absolute magnetization    =     2.49 Bohr mag/cell

     convergence has been achieved in   5 iterations

     Forces acting on atoms (cartesian axes, Ry/au):

     atom    1 type  1   force =     0.00000000    0.00000000    0.00000000

     Total force =     0.000000     Total SCF correction =     0.000000


     Computing stress (Cartesian axis) and pressure

          total   stress  (Ry/bohr**3)                   (kbar)     P=        0.12
   0.00000079  -0.00000000  -0.00000000            0.12       -0.00       -0.00
  -0.00000000   0.00000079  -0.00000000           -0.00        0.12       -0.00
  -0.00000000  -0.00000000   0.00000079           -0.00       -0.00        0.12

     Energy error            =      1.2E-06 Ry
     Gradient error          =      0.0E+00 Ry/Bohr
     Cell gradient error     =      1.2E-01 kbar

     bfgs converged in   6 scf cycles and   5 bfgs steps
     (criteria: energy <  1.0E-04 Ry, force <  1.0E-03 Ry/Bohr, cell <  5.0E-01 kbar)

     End of BFGS Geometry Optimization

     Final enthalpy           =     -55.8015160572 Ry

     File /home/bond/Work/Lab4/1A/Fe_bcc_nk_16_relax/pwscf.bfgs deleted, as requested
Begin final coordinates
     new unit-cell volume =     77.92029 a.u.^3 (    11.54660 Ang^3 )
     density =      8.03118 g/cm^3

CELL_PARAMETERS (angstrom)
  -1.423851351   1.423851351   1.423851351
   1.423851351  -1.423851351   1.423851351
   1.423851351   1.423851351  -1.423851351

ATOMIC_POSITIONS (angstrom)
Fe               0.0000000000        0.0000000000        0.0000000000
End final coordinates


     Message from routine punch:
     Nothing written, as per user request (disk_io='none')

     Final scf calculation at the relaxed structure.
     The G-vectors are recalculated for the final unit cell
     Results may differ from those at the preceding step.

     Parallelization info
     --------------------
     sticks:   dense  smooth     PW     G-vecs:    dense   smooth      PW
     Min         241     100     45                 3408      872     277
     Max         242     101     46                 3411      873     278
     Sum         483     201     91                 6819     1745     555

     Using Slab Decomposition



     bravais-lattice index     =            0
     lattice parameter (alat)  =       4.4187  a.u.
     unit-cell volume          =      77.9203 (a.u.)^3
     number of atoms/cell      =            1
     number of atomic types    =            1
     number of electrons       =         8.00
     number of Kohn-Sham states=            8
     kinetic-energy cutoff     =      30.0000  Ry
     charge density cutoff     =     300.0000  Ry
     scf convergence threshold =      1.0E-09
     mixing beta               =       0.5000
     number of iterations used =            8  plain     mixing
     press convergence thresh. =      5.0E-01
     Exchange-correlation=  SLA  PW   PBE  PBE
                           (   1   4   3   4   0   0   0)

     celldm(1)=   4.418687  celldm(2)=   0.000000  celldm(3)=   0.000000
     celldm(4)=   0.000000  celldm(5)=   0.000000  celldm(6)=   0.000000

     crystal axes: (cart. coord. in units of alat)
               a(1) = (  -0.608934   0.608934   0.608934 )  
               a(2) = (   0.608934  -0.608934   0.608934 )  
               a(3) = (   0.608934   0.608934  -0.608934 )  

     reciprocal axes: (cart. coord. in units 2 pi/alat)
               b(1) = (  0.000000  0.821107  0.821107 )  
               b(2) = (  0.821107  0.000000  0.821107 )  
               b(3) = (  0.821107  0.821107  0.000000 )  


     PseudoPot. # 1 for Fe read from file:
     /home/bond/Software/QE/qe-7.4.1/pseudo/Fe.pbe-nd-rrkjus.UPF
     MD5 check sum: 398036227a04b607635f6f5e8dfd8242
     Pseudo is Ultrasoft + core correction, Zval =  8.0
     Generated by new atomic code, or converted to UPF format
     Using radial grid of  957 points,  6 beta functions with: 
                l(1) =   0
                l(2) =   0
                l(3) =   1
                l(4) =   1
                l(5) =   2
                l(6) =   2
     Q(r) pseudized with 0 coefficients 


     atomic species   valence    mass     pseudopotential
     Fe                8.00    55.84500     Fe( 1.00)

     Starting magnetic structure 
     atomic species   magnetization
     Fe              0.386

     48 Sym. Ops., with inversion, found



   Cartesian axes

     site n.     atom                  positions (alat units)
         1        Fe     tau(   1) = (   0.0000000   0.0000000   0.0000000  )

     number of k points=   145  Methfessel-Paxton smearing, width (Ry)=  0.0200

     Number of k-points >= 100: set verbosity='high' to print them.

     Dense  grid:     6819 G-vectors     FFT dimensions: (  25,  25,  25)

     Smooth grid:     1745 G-vectors     FFT dimensions: (  18,  18,  18)

     Estimated max dynamical RAM per process >      20.52 MB

     Estimated total dynamical RAM >      41.03 MB

     Check: negative core charge=   -0.000005
     Generating pointlists ...

     Initial potential from superposition of free atoms

     starting charge       7.9994, renormalised to       8.0000
     Starting wfcs are    6 randomized atomic wfcs +    2 random wfcs

     total cpu time spent up to now is       21.8 secs

     Self-consistent Calculation

     iteration #  1     ecut=    30.00 Ry     beta= 0.50
     Davidson diagonalization with overlap
     c_bands:  1 eigenvalues not converged
     c_bands:  1 eigenvalues not converged
     c_bands:  1 eigenvalues not converged
     c_bands:  1 eigenvalues not converged
     c_bands:  1 eigenvalues not converged
     c_bands:  1 eigenvalues not converged
     c_bands:  1 eigenvalues not converged
     c_bands:  1 eigenvalues not converged
     c_bands:  1 eigenvalues not converged
     c_bands:  1 eigenvalues not converged
     c_bands:  1 eigenvalues not converged
     c_bands:  1 eigenvalues not converged
     c_bands:  1 eigenvalues not converged
     c_bands:  1 eigenvalues not converged
     c_bands:  1 eigenvalues not converged
     c_bands:  3 eigenvalues not converged
     c_bands:  2 eigenvalues not converged
     c_bands:  1 eigenvalues not converged
     c_bands:  1 eigenvalues not converged
     c_bands:  1 eigenvalues not converged
     c_bands:  1 eigenvalues not converged
     c_bands:  1 eigenvalues not converged
     c_bands:  1 eigenvalues not converged
     c_bands:  1 eigenvalues not converged
     c_bands:  1 eigenvalues not converged
     c_bands:  1 eigenvalues not converged
     c_bands:  1 eigenvalues not converged
     c_bands:  1 eigenvalues not converged
     c_bands:  1 eigenvalues not converged
     c_bands:  1 eigenvalues not converged
     c_bands:  1 eigenvalues not converged
     c_bands:  1 eigenvalues not converged
     c_bands:  1 eigenvalues not converged
     c_bands:  1 eigenvalues not converged
     c_bands:  1 eigenvalues not converged
     c_bands:  1 eigenvalues not converged
     c_bands:  1 eigenvalues not converged
     c_bands:  1 eigenvalues not converged
     c_bands:  1 eigenvalues not converged
     c_bands:  1 eigenvalues not converged
     c_bands:  1 eigenvalues not converged
     c_bands:  1 eigenvalues not converged
     c_bands:  2 eigenvalues not converged
     ethr =  1.00E-06,  avg # of iterations = 17.3

     total cpu time spent up to now is       24.4 secs

     total energy              =     -55.67227073 Ry
     estimated scf accuracy    <       0.36017055 Ry

     total magnetization       =     2.25 Bohr mag/cell
     absolute magnetization    =     2.25 Bohr mag/cell

     iteration #  2     ecut=    30.00 Ry     beta= 0.50
     Davidson diagonalization with overlap
     ethr =  4.50E-03,  avg # of iterations =  1.9

     total cpu time spent up to now is       25.0 secs

     total energy              =     -55.77824603 Ry
     estimated scf accuracy    <       0.09965526 Ry

     total magnetization       =     2.52 Bohr mag/cell
     absolute magnetization    =     2.53 Bohr mag/cell

     iteration #  3     ecut=    30.00 Ry     beta= 0.50
     Davidson diagonalization with overlap
     ethr =  1.25E-03,  avg # of iterations =  1.0

     total cpu time spent up to now is       25.5 secs

     total energy              =     -55.79991132 Ry
     estimated scf accuracy    <       0.00162885 Ry

     total magnetization       =     2.37 Bohr mag/cell
     absolute magnetization    =     2.41 Bohr mag/cell

     iteration #  4     ecut=    30.00 Ry     beta= 0.50
     Davidson diagonalization with overlap
     ethr =  2.04E-05,  avg # of iterations =  2.3

     total cpu time spent up to now is       26.1 secs

     total energy              =     -55.80200765 Ry
     estimated scf accuracy    <       0.00005090 Ry

     total magnetization       =     2.32 Bohr mag/cell
     absolute magnetization    =     2.44 Bohr mag/cell

     iteration #  5     ecut=    30.00 Ry     beta= 0.50
     Davidson diagonalization with overlap
     c_bands:  1 eigenvalues not converged
     c_bands:  1 eigenvalues not converged
     ethr =  6.36E-07,  avg # of iterations =  4.0

     total cpu time spent up to now is       26.9 secs

     total energy              =     -55.80209031 Ry
     estimated scf accuracy    <       0.00002254 Ry

     total magnetization       =     2.32 Bohr mag/cell
     absolute magnetization    =     2.47 Bohr mag/cell

     iteration #  6     ecut=    30.00 Ry     beta= 0.50
     Davidson diagonalization with overlap
     ethr =  2.82E-07,  avg # of iterations =  2.3

     total cpu time spent up to now is       27.5 secs

     total energy              =     -55.80210731 Ry
     estimated scf accuracy    <       0.00000451 Ry

     total magnetization       =     2.33 Bohr mag/cell
     absolute magnetization    =     2.48 Bohr mag/cell

     iteration #  7     ecut=    30.00 Ry     beta= 0.50
     Davidson diagonalization with overlap
     ethr =  5.63E-08,  avg # of iterations =  3.3

     total cpu time spent up to now is       28.2 secs

     total energy              =     -55.80210867 Ry
     estimated scf accuracy    <       0.00001037 Ry

     total magnetization       =     2.33 Bohr mag/cell
     absolute magnetization    =     2.48 Bohr mag/cell

     iteration #  8     ecut=    30.00 Ry     beta= 0.50
     Davidson diagonalization with overlap
     ethr =  5.63E-08,  avg # of iterations =  2.1

     total cpu time spent up to now is       28.8 secs

     total energy              =     -55.80211372 Ry
     estimated scf accuracy    <       0.00000052 Ry

     total magnetization       =     2.34 Bohr mag/cell
     absolute magnetization    =     2.49 Bohr mag/cell

     iteration #  9     ecut=    30.00 Ry     beta= 0.50
     Davidson diagonalization with overlap
     ethr =  6.52E-09,  avg # of iterations =  2.7

     total cpu time spent up to now is       29.4 secs

     total energy              =     -55.80211396 Ry
     estimated scf accuracy    <       0.00000001 Ry

     total magnetization       =     2.34 Bohr mag/cell
     absolute magnetization    =     2.49 Bohr mag/cell

     iteration # 10     ecut=    30.00 Ry     beta= 0.50
     Davidson diagonalization with overlap
     ethr =  1.26E-10,  avg # of iterations =  6.5

     total cpu time spent up to now is       30.5 secs

     total energy              =     -55.80211401 Ry
     estimated scf accuracy    <          1.5E-09 Ry

     total magnetization       =     2.34 Bohr mag/cell
     absolute magnetization    =     2.49 Bohr mag/cell

     iteration # 11     ecut=    30.00 Ry     beta= 0.50
     Davidson diagonalization with overlap
     ethr =  1.91E-11,  avg # of iterations =  3.3

     Magnetic moment per site  (integrated on atomic sphere of radius R)
     atom   1 (R=0.413)  charge=  6.1860  magn=  2.3910

     total cpu time spent up to now is       31.1 secs

     End of self-consistent calculation

     Number of k-points >= 100: set verbosity='high' to print the bands.

     the Fermi energy is    13.2298 ev

!    total energy              =     -55.80211402 Ry
     estimated scf accuracy    <          3.9E-10 Ry
     smearing contrib. (-TS)   =       0.00000811 Ry
     internal energy E=F+TS    =     -55.80212212 Ry

     The total energy is F=E-TS. E is the sum of the following terms:
     one-electron contribution =       7.34120744 Ry
     hartree contribution      =       6.58793786 Ry
     xc contribution           =     -26.45035822 Ry
     ewald contribution        =     -43.28090920 Ry

     total magnetization       =     2.34 Bohr mag/cell
     absolute magnetization    =     2.49 Bohr mag/cell

     convergence has been achieved in  11 iterations

     Forces acting on atoms (cartesian axes, Ry/au):

     atom    1 type  1   force =     0.00000000    0.00000000    0.00000000

     Total force =     0.000000     Total SCF correction =     0.000000


     Computing stress (Cartesian axis) and pressure

          total   stress  (Ry/bohr**3)                   (kbar)     P=       -0.84
  -0.00000570  -0.00000000  -0.00000000           -0.84       -0.00       -0.00
  -0.00000000  -0.00000570  -0.00000000           -0.00       -0.84       -0.00
  -0.00000000  -0.00000000  -0.00000570           -0.00       -0.00       -0.84

     Message from routine punch:
     Nothing written, as per user request (disk_io='none')

     init_run     :      0.70s CPU      0.77s WALL (       2 calls)
     electrons    :     24.85s CPU     28.64s WALL (       7 calls)
     update_pot   :      0.04s CPU      0.04s WALL (       5 calls)
     forces       :      0.28s CPU      0.29s WALL (       7 calls)
     stress       :      1.51s CPU      1.55s WALL (       7 calls)

     Called by init_run:
     wfcinit      :      0.27s CPU      0.33s WALL (       2 calls)
     potinit      :      0.13s CPU      0.14s WALL (       2 calls)
     hinit0       :      0.27s CPU      0.27s WALL (       2 calls)

     Called by electrons:
     c_bands      :     20.51s CPU     23.82s WALL (      58 calls)
     sum_band     :      3.52s CPU      3.98s WALL (      58 calls)
     v_of_rho     :      0.35s CPU      0.37s WALL (      63 calls)
     newd         :      0.50s CPU      0.52s WALL (      63 calls)
     mix_rho      :      0.02s CPU      0.02s WALL (      58 calls)

     Called by c_bands:
     init_us_2    :      0.71s CPU      0.83s WALL (   38280 calls)
     cegterg      :     19.06s CPU     22.12s WALL (   16820 calls)

     Called by *egterg:
     cdiaghg      :      2.91s CPU      3.40s WALL (   60660 calls)
     h_psi        :     13.58s CPU     15.74s WALL (   63270 calls)
     s_psi        :      0.26s CPU      0.31s WALL (   63270 calls)
     g_psi        :      0.11s CPU      0.13s WALL (   45870 calls)

     Called by h_psi:
     h_psi:calbec :      0.71s CPU      0.83s WALL (   63270 calls)
     vloc_psi     :     12.29s CPU     14.23s WALL (   63270 calls)
     add_vuspsi   :      0.29s CPU      0.34s WALL (   63270 calls)

     General routines
     calbec       :      1.10s CPU      1.26s WALL (  114600 calls)
     fft          :      0.17s CPU      0.18s WALL (    1850 calls)
     ffts         :      0.11s CPU      0.11s WALL (     242 calls)
     fftw         :     11.81s CPU     13.66s WALL (  873060 calls)
     interpolate  :      0.12s CPU      0.12s WALL (     126 calls)

     Parallel routines

     PWSCF        :     27.50s CPU     31.44s WALL


   This run was terminated on:  18:37:12  20Oct2025            

=------------------------------------------------------------------------------=
   JOB DONE.
=------------------------------------------------------------------------------=
