LAMMPS (22 Jul 2025 - Update 1)
Reading data file ...
  orthogonal box = (0 0 0) to (57.143169 57.143169 57.143169)
  1 by 1 by 1 MPI processor grid
  reading atoms ...
  10975 atoms
  read_data CPU = 0.047 seconds
Reading eam/alloy potential file /home/bond/Software/LAMMPS/lammps-22Jul2025/potentials/Al_zhou.eam.alloy with DATE: 2007-10-12
WARNING: No fixes with time integration, atoms won't move
For more information see https://docs.lammps.org/err0028 (../verlet.cpp:60)
Neighbor list info ...
  update: every = 1 steps, delay = 0 steps, check = yes
  max neighbors/atom: 2000, page size: 100000
  master list distance cutoff = 12.1025
  ghost atom cutoff = 12.1025
  binsize = 6.05125, bins = 10 10 10
  1 neighbor lists, perpetual/occasional/extra = 1 0 0
  (1) pair eam/alloy, perpetual
      attributes: half, newton on
      pair build: half/bin/atomonly/newton
      stencil: half/bin/3d
      bin: standard
Setting up Verlet run ...
  Unit style    : metal
  Current step  : 0
  Time step     : 0.001
Per MPI rank memory allocation (min/avg/max) = 15.49 | 15.49 | 15.49 Mbytes
   Step         PotEng           Lx             Ly             Lz           Press           Pxx            Pyy            Pzz      
         0  -39289.678      57.143169      57.143169      57.143169     -25.943034     -25.943046     -25.94301      -25.943046    
Loop time of 2.397e-06 on 1 procs for 0 steps with 10975 atoms

166.9% CPU use with 1 MPI tasks x no OpenMP threads

MPI task timing breakdown:
Section |  min time  |  avg time  |  max time  |%varavg| %total
---------------------------------------------------------------
Pair    | 0          | 0          | 0          |   0.0 |  0.00
Neigh   | 0          | 0          | 0          |   0.0 |  0.00
Comm    | 0          | 0          | 0          |   0.0 |  0.00
Output  | 0          | 0          | 0          |   0.0 |  0.00
Modify  | 0          | 0          | 0          |   0.0 |  0.00
Other   |            | 2.397e-06  |            |       |100.00

Nlocal:          10975 ave       10975 max       10975 min
Histogram: 1 0 0 0 0 0 0 0 0 0
Nghost:          18676 ave       18676 max       18676 min
Histogram: 1 0 0 0 0 0 0 0 0 0
Neighs:    2.34844e+06 ave 2.34844e+06 max 2.34844e+06 min
Histogram: 1 0 0 0 0 0 0 0 0 0

Total # of neighbors = 2348436
Ave neighs/atom = 213.9805
Neighbor list builds = 0
Dangerous builds = 0
Total energy (eV) = -39289.6782551841
Number of atoms = 10975
Lattice constant (Angstoms) = 57.1431686680886
Total wall time: 0:00:00
