LAMMPS (22 Jul 2025 - Update 1)
# ---------- 1. Initialize simulation ---------------------
units metal
atom_style atomic
dimension  3
boundary   p p p
read_data /home/bond/Work/Lab1/Vacancy/LJ/scan/7/lammps.data
Reading data file ...
  orthogonal box = (0 0 0) to (28.857661 28.857661 28.857661)
  1 by 1 by 1 MPI processor grid
  reading atoms ...
  1371 atoms
  read_data CPU = 0.004 seconds

# ---------- 2. Specify interatomic potential ---------------------

pair_style lj/cut 4.5
pair_coeff 1 1 0.392 2.620 4.5

# ---------- 3. Run single point calculation  ---------------------
thermo_style custom step pe lx ly lz press pxx pyy pzz
run 0
WARNING: No fixes with time integration, atoms won't move
For more information see https://docs.lammps.org/err0028 (../verlet.cpp:60)
Generated 0 of 0 mixed pair_coeff terms from geometric mixing rule
Neighbor list info ...
  update: every = 1 steps, delay = 0 steps, check = yes
  max neighbors/atom: 2000, page size: 100000
  master list distance cutoff = 6.5
  ghost atom cutoff = 6.5
  binsize = 3.25, bins = 9 9 9
  1 neighbor lists, perpetual/occasional/extra = 1 0 0
  (1) pair lj/cut, perpetual
      attributes: half, newton on
      pair build: half/bin/atomonly/newton
      stencil: half/bin/3d
      bin: standard
Per MPI rank memory allocation (min/avg/max) = 3.207 | 3.207 | 3.207 Mbytes
   Step         PotEng           Lx             Ly             Lz           Press           Pxx            Pyy            Pzz      
         0  -3609.4084      28.857661      28.857661      28.857661     -0.0053595826  -0.0055450021  -0.0049887435  -0.0055450021 
Loop time of 1.491e-06 on 1 procs for 0 steps with 1371 atoms

134.1% CPU use with 1 MPI tasks x no OpenMP threads

MPI task timing breakdown:
Section |  min time  |  avg time  |  max time  |%varavg| %total
---------------------------------------------------------------
Pair    | 0          | 0          | 0          |   0.0 |  0.00
Neigh   | 0          | 0          | 0          |   0.0 |  0.00
Comm    | 0          | 0          | 0          |   0.0 |  0.00
Output  | 0          | 0          | 0          |   0.0 |  0.00
Modify  | 0          | 0          | 0          |   0.0 |  0.00
Other   |            | 1.491e-06  |            |       |100.00

Nlocal:           1371 ave        1371 max        1371 min
Histogram: 1 0 0 0 0 0 0 0 0 0
Nghost:           3251 ave        3251 max        3251 min
Histogram: 1 0 0 0 0 0 0 0 0 0
Neighs:          36990 ave       36990 max       36990 min
Histogram: 1 0 0 0 0 0 0 0 0 0

Total # of neighbors = 36990
Ave neighs/atom = 26.980306
Neighbor list builds = 0
Dangerous builds = 0

# ---- 4. Define and print useful variables -------------
variable natoms equal "count(all)"
variable totenergy equal "pe"
variable length equal "lx"

print "Total energy (eV) = ${totenergy}"
Total energy (eV) = -3609.40837205112
print "Number of atoms = ${natoms}"
Number of atoms = 1371
print "Lattice constant (Angstoms) = ${length}"
Lattice constant (Angstoms) = 28.8576610964582
Total wall time: 0:00:00
