LAMMPS (22 Jul 2025 - Update 1)
# ---------- 1. Initialize simulation ---------------------
units metal
atom_style atomic
dimension  3
boundary   p p f
read_data /home/bond/Work/Lab1/Surface/EAM/relax/3_7_110/lammps.data
Reading data file ...
  orthogonal box = (0 0 0) to (12.244965 8.6584976 16.886166)
  1 by 1 by 1 MPI processor grid
  reading atoms ...
  27 atoms
  read_data CPU = 0.001 seconds

# ---------- 2. Specify interatomic potential ---------------------
pair_style eam/alloy
pair_coeff * * /home/bond/Software/LAMMPS/lammps-22Jul2025/potentials/Al_zhou.eam.alloy  Al
Reading eam/alloy potential file /home/bond/Software/LAMMPS/lammps-22Jul2025/potentials/Al_zhou.eam.alloy with DATE: 2007-10-12

# pair_style lj/cut 4.5
# pair_coeff 1 1 0.392 2.620 4.5

# ---------- 3. Run single point calculation  ---------------------
thermo_style custom step pe lx ly lz press pxx pyy pzz
run 0
WARNING: No fixes with time integration, atoms won't move
For more information see https://docs.lammps.org/err0028 (../verlet.cpp:60)
Neighbor list info ...
  update: every = 1 steps, delay = 0 steps, check = yes
  max neighbors/atom: 2000, page size: 100000
  master list distance cutoff = 12.1025
  ghost atom cutoff = 12.1025
  binsize = 6.05125, bins = 3 2 3
  1 neighbor lists, perpetual/occasional/extra = 1 0 0
  (1) pair eam/alloy, perpetual
      attributes: half, newton on
      pair build: half/bin/atomonly/newton
      stencil: half/bin/3d
      bin: standard
Per MPI rank memory allocation (min/avg/max) = 3.31 | 3.31 | 3.31 Mbytes
   Step         PotEng           Lx             Ly             Lz           Press           Pxx            Pyy            Pzz      
         0  -82.955055      12.244965      8.6584976      16.886166     -22275.356     -29296.67      -28236.703     -9292.6943    
Loop time of 2.767e-06 on 1 procs for 0 steps with 27 atoms

108.4% CPU use with 1 MPI tasks x no OpenMP threads

MPI task timing breakdown:
Section |  min time  |  avg time  |  max time  |%varavg| %total
---------------------------------------------------------------
Pair    | 0          | 0          | 0          |   0.0 |  0.00
Neigh   | 0          | 0          | 0          |   0.0 |  0.00
Comm    | 0          | 0          | 0          |   0.0 |  0.00
Output  | 0          | 0          | 0          |   0.0 |  0.00
Modify  | 0          | 0          | 0          |   0.0 |  0.00
Other   |            | 2.767e-06  |            |       |100.00

Nlocal:             27 ave          27 max          27 min
Histogram: 1 0 0 0 0 0 0 0 0 0
Nghost:            264 ave         264 max         264 min
Histogram: 1 0 0 0 0 0 0 0 0 0
Neighs:           1503 ave        1503 max        1503 min
Histogram: 1 0 0 0 0 0 0 0 0 0

Total # of neighbors = 1503
Ave neighs/atom = 55.666667
Neighbor list builds = 0
Dangerous builds = 0
# -- include optimization of the unit cell parameter
#fix 1 all box/relax x 0.0 y 0.0 couple xy vmax 0.001

# -- enable optimization of atomic positions (and the cell)
min_style cg
minimize 1e-10 1e-10 1000 10000
Per MPI rank memory allocation (min/avg/max) = 4.435 | 4.435 | 4.435 Mbytes
   Step         PotEng           Lx             Ly             Lz           Press           Pxx            Pyy            Pzz      
         0  -82.955055      12.244965      8.6584976      16.886166     -22275.356     -29296.67      -28236.703     -9292.6943    
         3  -83.309894      12.244965      8.6584976      16.886166     -13536.878     -20286.313     -20324.322      0.0011027466 
Loop time of 0.000728851 on 1 procs for 3 steps with 27 atoms

65.9% CPU use with 1 MPI tasks x no OpenMP threads

Minimization stats:
  Stopping criterion = energy tolerance
  Energy initial, next-to-last, final = 
     -82.9550545953689    -83.30989419477  -83.3098941996809
  Force two-norm initial, final = 1.6960328 7.1887875e-06
  Force max component initial, final = 0.39977231 2.0449438e-06
  Final line search alpha, max atom move = 1 2.0449438e-06
  Iterations, force evaluations = 3 6

MPI task timing breakdown:
Section |  min time  |  avg time  |  max time  |%varavg| %total
---------------------------------------------------------------
Pair    | 0.00066155 | 0.00066155 | 0.00066155 |   0.0 | 90.77
Neigh   | 0          | 0          | 0          |   0.0 |  0.00
Comm    | 1.3554e-05 | 1.3554e-05 | 1.3554e-05 |   0.0 |  1.86
Output  | 0          | 0          | 0          |   0.0 |  0.00
Modify  | 0          | 0          | 0          |   0.0 |  0.00
Other   |            | 5.375e-05  |            |       |  7.37

Nlocal:             27 ave          27 max          27 min
Histogram: 1 0 0 0 0 0 0 0 0 0
Nghost:            264 ave         264 max         264 min
Histogram: 1 0 0 0 0 0 0 0 0 0
Neighs:           1503 ave        1503 max        1503 min
Histogram: 1 0 0 0 0 0 0 0 0 0

Total # of neighbors = 1503
Ave neighs/atom = 55.666667
Neighbor list builds = 0
Dangerous builds = 0

# ---- 4. Define and print useful variables -------------
variable natoms equal "count(all)"
variable totenergy equal "pe"
variable length equal "lx"

print "Total energy (eV) = ${totenergy}"
Total energy (eV) = -83.3098941996809
print "Number of atoms = ${natoms}"
Number of atoms = 27
print "Lattice constant (Angstoms) = ${length}"
Lattice constant (Angstoms) = 12.2449647145904
Total wall time: 0:00:00
