LAMMPS (22 Jul 2025 - Update 1)
# ---------- 1. Initialize simulation ---------------------
units metal
atom_style atomic
dimension  3
boundary   p p p
read_data /home/bond/Work/Lab1/Vacancy/EAM/scan/13/lammps.data
Reading data file ...
  orthogonal box = (0 0 0) to (53.061514 53.061514 53.061514)
  1 by 1 by 1 MPI processor grid
  reading atoms ...
  8787 atoms
  read_data CPU = 0.026 seconds

# ---------- 2. Specify interatomic potential ---------------------
pair_style eam/alloy
pair_coeff * * /home/bond/Software/LAMMPS/lammps-22Jul2025/potentials/Al_zhou.eam.alloy  Al
Reading eam/alloy potential file /home/bond/Software/LAMMPS/lammps-22Jul2025/potentials/Al_zhou.eam.alloy with DATE: 2007-10-12

# pair_style lj/cut 4.5
# pair_coeff 1 1 0.392 2.620 4.5

# ---------- 3. Run single point calculation  ---------------------
thermo_style custom step pe lx ly lz press pxx pyy pzz
run 0
WARNING: No fixes with time integration, atoms won't move
For more information see https://docs.lammps.org/err0028 (../verlet.cpp:60)
Neighbor list info ...
  update: every = 1 steps, delay = 0 steps, check = yes
  max neighbors/atom: 2000, page size: 100000
  master list distance cutoff = 12.1025
  ghost atom cutoff = 12.1025
  binsize = 6.05125, bins = 9 9 9
  1 neighbor lists, perpetual/occasional/extra = 1 0 0
  (1) pair eam/alloy, perpetual
      attributes: half, newton on
      pair build: half/bin/atomonly/newton
      stencil: half/bin/3d
      bin: standard
Per MPI rank memory allocation (min/avg/max) = 13.86 | 13.86 | 13.86 Mbytes
   Step         PotEng           Lx             Ly             Lz           Press           Pxx            Pyy            Pzz      
         0  -31456.641      53.061514      53.061514      53.061514     -32.40175      -32.401758     -32.401733     -32.401758    
Loop time of 2.033e-06 on 1 procs for 0 steps with 8787 atoms

196.8% CPU use with 1 MPI tasks x no OpenMP threads

MPI task timing breakdown:
Section |  min time  |  avg time  |  max time  |%varavg| %total
---------------------------------------------------------------
Pair    | 0          | 0          | 0          |   0.0 |  0.00
Neigh   | 0          | 0          | 0          |   0.0 |  0.00
Comm    | 0          | 0          | 0          |   0.0 |  0.00
Output  | 0          | 0          | 0          |   0.0 |  0.00
Modify  | 0          | 0          | 0          |   0.0 |  0.00
Other   |            | 2.033e-06  |            |       |100.00

Nlocal:           8787 ave        8787 max        8787 min
Histogram: 1 0 0 0 0 0 0 0 0 0
Nghost:          16531 ave       16531 max       16531 min
Histogram: 1 0 0 0 0 0 0 0 0 0
Neighs:     1.8802e+06 ave  1.8802e+06 max  1.8802e+06 min
Histogram: 1 0 0 0 0 0 0 0 0 0

Total # of neighbors = 1880204
Ave neighs/atom = 213.97565
Neighbor list builds = 0
Dangerous builds = 0
# -- include optimization of the unit cell parameter
#fix 1 all box/relax iso 0.0 vmax 0.001

# -- enable optimization of atomic positions (and the cell)
#min_style cg
#minimize 1e-10 1e-10 1000 10000

# ---- 4. Define and print useful variables -------------
variable natoms equal "count(all)"
variable totenergy equal "pe"
variable length equal "lx"

print "Total energy (eV) = ${totenergy}"
Total energy (eV) = -31456.6411909301
print "Number of atoms = ${natoms}"
Number of atoms = 8787
print "Lattice constant (Angstoms) = ${length}"
Lattice constant (Angstoms) = 53.0615137632251
Total wall time: 0:00:00
