
     Program PWSCF v.7.4.1 starts on 21Oct2025 at 12:32:19 

     This program is part of the open-source Quantum ESPRESSO suite
     for quantum simulation of materials; please cite
         "P. Giannozzi et al., J. Phys.:Condens. Matter 21 395502 (2009);
         "P. Giannozzi et al., J. Phys.:Condens. Matter 29 465901 (2017);
         "P. Giannozzi et al., J. Chem. Phys. 152 154105 (2020);
          URL http://www.quantum-espresso.org", 
     in publications or presentations arising from this work. More details at
     http://www.quantum-espresso.org/quote

     Parallel version (MPI), running on     2 processors

     MPI processes distributed on     1 nodes
     651 MiB available memory on the printing compute node when the environment starts

     Waiting for input...
     Reading input from standard input
Warning: card &CELL ignored
Warning: card / ignored

     Current dimensions of program PWSCF are:
     Max number of different atomic species (ntypx) = 10
     Max number of k-points (npk) =  40000
     Max angular momentum in pseudopotentials (lmaxx) =  4
     file O.pz-rrkjus.UPF: wavefunction(s)  2S renormalized
     Message from routine setup:
     using ibrav=0 with symmetry is DISCOURAGED, use correct ibrav instead

     R & G space division:  proc/nbgrp/npool/nimage =       2
     Subspace diagonalization in iterative solution of the eigenvalue problem:
     a serial algorithm will be used


     Parallelization info
     --------------------
     sticks:   dense  smooth     PW     G-vecs:    dense   smooth      PW
     Min         516     254     74                12286     4354     709
     Max         517     255     75                12287     4355     710
     Sum        1033     509    149                24573     8709    1419

     Using Slab Decomposition



     bravais-lattice index     =            0
     lattice parameter (alat)  =       7.3227  a.u.
     unit-cell volume          =     392.6555 (a.u.)^3
     number of atoms/cell      =            5
     number of atomic types    =            3
     number of electrons       =        44.00
     number of Kohn-Sham states=           22
     kinetic-energy cutoff     =      30.0000  Ry
     charge density cutoff     =     240.0000  Ry
     scf convergence threshold =      1.0E-07
     mixing beta               =       0.7000
     number of iterations used =            8  plain     mixing
     energy convergence thresh.=      1.0E-04
     force convergence thresh. =      1.0E-03
     Exchange-correlation= SLA  PZ   NOGX NOGC
                           (   1   1   0   0   0   0   0)
     nstep                     =           50


     celldm(1)=   7.322689  celldm(2)=   0.000000  celldm(3)=   0.000000
     celldm(4)=   0.000000  celldm(5)=   0.000000  celldm(6)=   0.000000

     crystal axes: (cart. coord. in units of alat)
               a(1) = (   1.000000   0.000000   0.000000 )  
               a(2) = (   0.000000   1.000000   0.000000 )  
               a(3) = (   0.000000   0.000000   1.000000 )  

     reciprocal axes: (cart. coord. in units 2 pi/alat)
               b(1) = (  1.000000  0.000000  0.000000 )  
               b(2) = (  0.000000  1.000000  0.000000 )  
               b(3) = (  0.000000  0.000000  1.000000 )  


     PseudoPot. # 1 for O  read from file:
     /home/bond/Software/QE/qe-7.4.1/pseudo/O.pz-rrkjus.UPF
     MD5 check sum: 24fb942a68ef5d262e498166c462ef4a
     Pseudo is Ultrasoft, Zval =  6.0
     Generated by new atomic code, or converted to UPF format
     Using radial grid of 1269 points,  4 beta functions with: 
                l(1) =   0
                l(2) =   0
                l(3) =   1
                l(4) =   1
     Q(r) pseudized with 0 coefficients 


     PseudoPot. # 2 for Pb read from file:
     /home/bond/Software/QE/qe-7.4.1/pseudo/Pb.pz-d-van.UPF
     MD5 check sum: 4e1e5920686a026ae26139ac417581ff
     Pseudo is Ultrasoft, Zval = 14.0
     Generated by new atomic code, or converted to UPF format
     Using radial grid of  899 points,  6 beta functions with: 
                l(1) =   0
                l(2) =   0
                l(3) =   1
                l(4) =   1
                l(5) =   2
                l(6) =   2
     Q(r) pseudized with  8 coefficients,  rinner =    1.000   1.000   1.000
                                                       1.000   1.000

     PseudoPot. # 3 for Ti read from file:
     /home/bond/Software/QE/qe-7.4.1/pseudo/Ti.pz-sp-van_ak.UPF
     MD5 check sum: 545d0e6e05332b8871a8093f427cb0ca
     Pseudo is Ultrasoft, Zval = 12.0
     Generated by new atomic code, or converted to UPF format
     Using radial grid of  851 points,  6 beta functions with: 
                l(1) =   0
                l(2) =   0
                l(3) =   1
                l(4) =   1
                l(5) =   2
                l(6) =   2
     Q(r) pseudized with  8 coefficients,  rinner =    1.000   1.000   1.000
                                                       1.000   1.000

     atomic species   valence    mass     pseudopotential
     O                 6.00    15.99900     O ( 1.00)
     Pb               14.00   207.20000     Pb( 1.00)
     Ti               12.00    47.86700     Ti( 1.00)

      8 Sym. Ops. (no inversion) found



   Cartesian axes

     site n.     atom                  positions (alat units)
         1        Pb     tau(   1) = (   0.0000000   0.0000000   0.0000000  )
         2        Ti     tau(   2) = (   0.5000000   0.5000000   0.4600000  )
         3        O      tau(   3) = (   0.0000000   0.5000000   0.5000000  )
         4        O      tau(   4) = (   0.5000000   0.0000000   0.5000000  )
         5        O      tau(   5) = (   0.5000000   0.5000000   0.0000000  )

     number of k points=     6
                       cart. coord. in units 2pi/alat
        k(    1) = (   0.1250000   0.1250000   0.1250000), wk =   0.2500000
        k(    2) = (   0.1250000   0.1250000   0.3750000), wk =   0.2500000
        k(    3) = (   0.1250000   0.3750000   0.3750000), wk =   0.5000000
        k(    4) = (   0.3750000   0.3750000   0.3750000), wk =   0.2500000
        k(    5) = (   0.3750000  -0.1250000   0.1250000), wk =   0.5000000
        k(    6) = (   0.3750000  -0.3750000   0.1250000), wk =   0.2500000

     Dense  grid:    24573 G-vectors     FFT dimensions: (  40,  40,  40)

     Smooth grid:     8709 G-vectors     FFT dimensions: (  25,  25,  25)

     Estimated max dynamical RAM per process >      51.19 MB

     Estimated total dynamical RAM >     102.38 MB

     Initial potential from superposition of free atoms

     starting charge      42.9982, renormalised to      44.0000
     Starting wfcs are   31 randomized atomic wfcs

     total cpu time spent up to now is        1.4 secs

     Self-consistent Calculation

     iteration #  1     ecut=    30.00 Ry     beta= 0.70
     Davidson diagonalization with overlap
     ethr =  1.00E-02,  avg # of iterations =  2.0

     total cpu time spent up to now is        1.9 secs

     total energy              =    -332.62396398 Ry
     estimated scf accuracy    <       1.08707460 Ry

     iteration #  2     ecut=    30.00 Ry     beta= 0.70
     Davidson diagonalization with overlap
     ethr =  2.47E-03,  avg # of iterations =  6.2

     total cpu time spent up to now is        2.3 secs

     total energy              =    -332.42435934 Ry
     estimated scf accuracy    <       3.81932405 Ry

     iteration #  3     ecut=    30.00 Ry     beta= 0.70
     Davidson diagonalization with overlap
     ethr =  2.47E-03,  avg # of iterations =  5.0

     total cpu time spent up to now is        2.8 secs

     total energy              =    -333.15412472 Ry
     estimated scf accuracy    <       0.21389540 Ry

     iteration #  4     ecut=    30.00 Ry     beta= 0.70
     Davidson diagonalization with overlap
     ethr =  4.86E-04,  avg # of iterations =  2.0

     total cpu time spent up to now is        3.2 secs

     total energy              =    -333.15212051 Ry
     estimated scf accuracy    <       0.05717999 Ry

     iteration #  5     ecut=    30.00 Ry     beta= 0.70
     Davidson diagonalization with overlap
     ethr =  1.30E-04,  avg # of iterations =  4.8

     total cpu time spent up to now is        3.6 secs

     total energy              =    -333.17967360 Ry
     estimated scf accuracy    <       0.02337369 Ry

     iteration #  6     ecut=    30.00 Ry     beta= 0.70
     Davidson diagonalization with overlap
     ethr =  5.31E-05,  avg # of iterations =  1.7

     total cpu time spent up to now is        4.0 secs

     total energy              =    -333.17707556 Ry
     estimated scf accuracy    <       0.01104050 Ry

     iteration #  7     ecut=    30.00 Ry     beta= 0.70
     Davidson diagonalization with overlap
     ethr =  2.51E-05,  avg # of iterations =  4.0

     total cpu time spent up to now is        4.5 secs

     total energy              =    -333.17954842 Ry
     estimated scf accuracy    <       0.00002758 Ry

     iteration #  8     ecut=    30.00 Ry     beta= 0.70
     Davidson diagonalization with overlap
     ethr =  6.27E-08,  avg # of iterations =  8.8

     total cpu time spent up to now is        5.1 secs

     total energy              =    -333.17967035 Ry
     estimated scf accuracy    <       0.00028407 Ry

     iteration #  9     ecut=    30.00 Ry     beta= 0.70
     Davidson diagonalization with overlap
     ethr =  6.27E-08,  avg # of iterations =  4.5

     total cpu time spent up to now is        5.5 secs

     total energy              =    -333.17966036 Ry
     estimated scf accuracy    <       0.00008514 Ry

     iteration # 10     ecut=    30.00 Ry     beta= 0.70
     Davidson diagonalization with overlap
     ethr =  6.27E-08,  avg # of iterations =  4.5

     total cpu time spent up to now is        6.0 secs

     total energy              =    -333.17966674 Ry
     estimated scf accuracy    <       0.00000697 Ry

     iteration # 11     ecut=    30.00 Ry     beta= 0.70
     Davidson diagonalization with overlap
     ethr =  1.58E-08,  avg # of iterations =  4.3

     total cpu time spent up to now is        6.4 secs

     total energy              =    -333.17966875 Ry
     estimated scf accuracy    <       0.00000068 Ry

     iteration # 12     ecut=    30.00 Ry     beta= 0.70
     Davidson diagonalization with overlap
     ethr =  1.55E-09,  avg # of iterations =  2.0

     total cpu time spent up to now is        6.8 secs

     total energy              =    -333.17966870 Ry
     estimated scf accuracy    <       0.00000028 Ry

     iteration # 13     ecut=    30.00 Ry     beta= 0.70
     Davidson diagonalization with overlap
     ethr =  6.41E-10,  avg # of iterations =  4.3

     total cpu time spent up to now is        7.2 secs

     End of self-consistent calculation

          k = 0.1250 0.1250 0.1250 (  1090 PWs)   bands (ev):

   -44.5251 -21.2310 -21.1286 -21.1276  -6.3235  -5.2853  -5.1925  -3.9853
    -3.9740  -3.9621  -3.7957  -3.7845   4.6354   7.2858   7.3396   8.0883
     8.9671   9.0803   9.6612   9.8365  10.0817  10.1758

          k = 0.1250 0.1250 0.3750 (  1095 PWs)   bands (ev):

   -44.5238 -21.2900 -21.1263 -21.1254  -5.8681  -5.1532  -5.0641  -4.0436
    -3.9807  -3.9567  -3.8828  -3.7673   3.8599   6.8215   7.1903   7.8613
     8.5136   8.5998   9.4461   9.8891  10.2078  10.9408

          k = 0.1250 0.3750 0.3750 (  1087 PWs)   bands (ev):

   -44.5225 -21.2864 -21.1822 -21.1238  -5.6552  -5.0583  -4.9136  -4.0172
    -3.9723  -3.9170  -3.8243  -3.6549   3.5213   6.6578   6.9964   7.1944
     7.5273   8.7423   9.3428   9.5503  10.0405  10.6756

          k = 0.3750 0.3750 0.3750 (  1082 PWs)   bands (ev):

   -44.5212 -21.2839 -21.1798 -21.1796  -5.3254  -5.1491  -5.0917  -3.9307
    -3.9179  -3.6425  -3.5706  -3.5440   4.1509   5.8890   5.9751   6.6989
     7.1402   7.1973   7.9910  10.5936  10.6565  10.7892

          k = 0.3750-0.1250 0.1250 (  1095 PWs)   bands (ev):

   -44.5239 -21.2288 -21.1859 -21.1260  -5.9372  -5.1421  -5.0369  -4.0384
    -3.9735  -3.9605  -3.8944  -3.7579   3.9016   6.9132   7.3740   7.8538
     8.4404   8.8103   9.2726   9.8968   9.9991  10.8446

          k = 0.3750-0.3750 0.1250 (  1087 PWs)   bands (ev):

   -44.5226 -21.2266 -21.1828 -21.1819  -5.7803  -4.9648  -4.8863  -4.0057
    -3.9680  -3.9056  -3.8199  -3.6995   3.5594   6.8550   6.9079   7.1493
     7.4577   8.6955   9.5027   9.5201  10.0231  10.7923

     highest occupied level (ev):    10.9408

!    total energy              =    -333.17966877 Ry
     estimated scf accuracy    <          4.9E-09 Ry

     The total energy is the sum of the following terms:
     one-electron contribution =     -77.12459876 Ry
     hartree contribution      =      66.58077886 Ry
     xc contribution           =     -49.67491260 Ry
     ewald contribution        =    -272.96093627 Ry

     convergence has been achieved in  13 iterations

     Forces acting on atoms (cartesian axes, Ry/au):

     atom    1 type  2   force =     0.00000000    0.00000000   -0.01758825
     atom    2 type  3   force =     0.00000000    0.00000000    0.04634641
     atom    3 type  1   force =     0.00000000    0.00000000   -0.00101807
     atom    4 type  1   force =     0.00000000    0.00000000   -0.00101807
     atom    5 type  1   force =     0.00000000    0.00000000   -0.02672202

     Total force =     0.026761     Total SCF correction =     0.000066


     Computing stress (Cartesian axis) and pressure

          total   stress  (Ry/bohr**3)                   (kbar)     P=        2.25
  -0.00007321   0.00000000   0.00000000          -10.77        0.00        0.00
   0.00000000  -0.00007321   0.00000000            0.00      -10.77        0.00
   0.00000000   0.00000000   0.00019221            0.00        0.00       28.28


     BFGS Geometry Optimization
     Energy error            =      7.9E-04 Ry
     Gradient error          =      2.7E-02 Ry/Bohr

     number of scf cycles    =   1
     number of bfgs steps    =   0

     energy             new  =    -333.1796687652 Ry

     new trust radius        =       0.0267220185 bohr
     new conv_thr            =       0.0000001000 Ry


ATOMIC_POSITIONS (angstrom)
Pb               0.0000000000        0.0000000000        0.0000000000    0   0   0
Ti               1.9375000000        1.9375000000        1.7825000000    0   0   0
O                0.0000000000        1.9375000000        1.9369612613
O                1.9375000000        0.0000000000        1.9369612613
O                1.9375000000        1.9375000000       -0.0141406832


     Message from routine punch:
     Nothing written, as per user request (disk_io='none')
     NEW-OLD atomic charge density approx. for the potential

     total cpu time spent up to now is        8.7 secs

     Self-consistent Calculation

     iteration #  1     ecut=    30.00 Ry     beta= 0.70
     Davidson diagonalization with overlap
     ethr =  1.00E-06,  avg # of iterations =  5.5

     total cpu time spent up to now is        9.2 secs

     total energy              =    -333.18019446 Ry
     estimated scf accuracy    <       0.00015018 Ry

     iteration #  2     ecut=    30.00 Ry     beta= 0.70
     Davidson diagonalization with overlap
     ethr =  3.41E-07,  avg # of iterations =  4.8

     total cpu time spent up to now is        9.7 secs

     total energy              =    -333.18020027 Ry
     estimated scf accuracy    <       0.00016254 Ry

     iteration #  3     ecut=    30.00 Ry     beta= 0.70
     Davidson diagonalization with overlap
     ethr =  3.41E-07,  avg # of iterations =  4.5

     total cpu time spent up to now is       10.2 secs

     total energy              =    -333.18023836 Ry
     estimated scf accuracy    <       0.00002718 Ry

     iteration #  4     ecut=    30.00 Ry     beta= 0.70
     Davidson diagonalization with overlap
     ethr =  6.18E-08,  avg # of iterations =  3.7

     total cpu time spent up to now is       10.6 secs

     total energy              =    -333.18024224 Ry
     estimated scf accuracy    <       0.00000159 Ry

     iteration #  5     ecut=    30.00 Ry     beta= 0.70
     Davidson diagonalization with overlap
     ethr =  3.60E-09,  avg # of iterations =  5.3

     total cpu time spent up to now is       11.1 secs

     total energy              =    -333.18024342 Ry
     estimated scf accuracy    <       0.00000082 Ry

     iteration #  6     ecut=    30.00 Ry     beta= 0.70
     Davidson diagonalization with overlap
     ethr =  1.86E-09,  avg # of iterations =  2.5

     total cpu time spent up to now is       11.5 secs

     total energy              =    -333.18024337 Ry
     estimated scf accuracy    <       0.00000031 Ry

     iteration #  7     ecut=    30.00 Ry     beta= 0.70
     Davidson diagonalization with overlap
     ethr =  7.13E-10,  avg # of iterations =  4.2

     total cpu time spent up to now is       12.0 secs

     End of self-consistent calculation

          k = 0.1250 0.1250 0.1250 (  1090 PWs)   bands (ev):

   -44.5482 -21.2358 -21.1523 -21.1513  -6.3254  -5.2799  -5.1982  -3.9800
    -3.9702  -3.9583  -3.7913  -3.7815   4.6396   7.2885   7.3342   8.0845
     8.9894   9.0976   9.6862   9.8384  10.0742  10.1819

          k = 0.1250 0.1250 0.3750 (  1095 PWs)   bands (ev):

   -44.5470 -21.2947 -21.1500 -21.1491  -5.8745  -5.1437  -5.0707  -4.0388
    -3.9754  -3.9531  -3.8799  -3.7627   3.8703   6.8221   7.2035   7.8519
     8.5152   8.6249   9.4441   9.8926  10.2003  10.9389

          k = 0.1250 0.3750 0.3750 (  1087 PWs)   bands (ev):

   -44.5457 -21.2910 -21.2058 -21.1475  -5.6608  -5.0491  -4.9186  -4.0123
    -3.9675  -3.9128  -3.8205  -3.6530   3.5280   6.6709   6.9883   7.1934
     7.5250   8.7371   9.3643   9.5454  10.0490  10.6816

          k = 0.3750 0.3750 0.3750 (  1082 PWs)   bands (ev):

   -44.5444 -21.2885 -21.2034 -21.2031  -5.3214  -5.1485  -5.0965  -3.9255
    -3.9143  -3.6367  -3.5674  -3.5433   4.1556   5.9006   5.9749   6.6958
     7.1379   7.1871   7.9974  10.6073  10.6669  10.7835

          k = 0.3750-0.1250 0.1250 (  1095 PWs)   bands (ev):

   -44.5470 -21.2336 -21.2094 -21.1497  -5.9360  -5.1397  -5.0427  -4.0342
    -3.9690  -3.9565  -3.8901  -3.7548   3.9060   6.9076   7.3767   7.8539
     8.4424   8.8121   9.2902   9.9034  10.0118  10.8510

          k = 0.3750-0.3750 0.1250 (  1087 PWs)   bands (ev):

   -44.5457 -21.2314 -21.2063 -21.2054  -5.7720  -4.9698  -4.8926  -4.0022
    -3.9637  -3.9026  -3.8167  -3.6926   3.5601   6.8506   6.9064   7.1641
     7.4711   8.6960   9.5065   9.5174  10.0248  10.7867

     highest occupied level (ev):    10.9389

!    total energy              =    -333.18024346 Ry
     estimated scf accuracy    <       0.00000002 Ry

     The total energy is the sum of the following terms:
     one-electron contribution =     -76.94237796 Ry
     hartree contribution      =      66.48354919 Ry
     xc contribution           =     -49.66825770 Ry
     ewald contribution        =    -273.05315699 Ry

     convergence has been achieved in   7 iterations

     Forces acting on atoms (cartesian axes, Ry/au):

     atom    1 type  2   force =     0.00000000    0.00000000   -0.01796254
     atom    2 type  3   force =     0.00000000    0.00000000    0.04052801
     atom    3 type  1   force =     0.00000000    0.00000000   -0.00328016
     atom    4 type  1   force =     0.00000000    0.00000000   -0.00328016
     atom    5 type  1   force =     0.00000000    0.00000000   -0.01600516

     Total force =     0.016664     Total SCF correction =     0.000031


     Computing stress (Cartesian axis) and pressure

          total   stress  (Ry/bohr**3)                   (kbar)     P=       -2.07
  -0.00008466   0.00000000   0.00000000          -12.45        0.00        0.00
   0.00000000  -0.00008466   0.00000000            0.00      -12.45        0.00
   0.00000000   0.00000000   0.00012705            0.00        0.00       18.69

     Energy error            =      5.7E-04 Ry
     Gradient error          =      1.6E-02 Ry/Bohr

     number of scf cycles    =   2
     number of bfgs steps    =   1

     energy             old  =    -333.1796687652 Ry
     energy             new  =    -333.1802434649 Ry

     CASE: energy            _new < energy            _old

     new trust radius        =       0.0293942203 bohr
     new conv_thr            =       0.0000000057 Ry


ATOMIC_POSITIONS (angstrom)
Pb               0.0000000000        0.0000000000        0.0000000000    0   0   0
Ti               1.9375000000        1.9375000000        1.7825000000    0   0   0
O                0.0000000000        1.9375000000        1.9339750964
O                1.9375000000        0.0000000000        1.9339750964
O                1.9375000000        1.9375000000       -0.0296954347


     Message from routine punch:
     Nothing written, as per user request (disk_io='none')
     NEW-OLD atomic charge density approx. for the potential

     total cpu time spent up to now is       13.5 secs

     Self-consistent Calculation

     iteration #  1     ecut=    30.00 Ry     beta= 0.70
     Davidson diagonalization with overlap
     ethr =  1.00E-06,  avg # of iterations =  5.7

     total cpu time spent up to now is       13.9 secs

     total energy              =    -333.18056255 Ry
     estimated scf accuracy    <       0.00017048 Ry

     iteration #  2     ecut=    30.00 Ry     beta= 0.70
     Davidson diagonalization with overlap
     ethr =  3.87E-07,  avg # of iterations =  4.7

     total cpu time spent up to now is       14.4 secs

     total energy              =    -333.18056727 Ry
     estimated scf accuracy    <       0.00017025 Ry

     iteration #  3     ecut=    30.00 Ry     beta= 0.70
     Davidson diagonalization with overlap
     ethr =  3.87E-07,  avg # of iterations =  4.5

     total cpu time spent up to now is       14.8 secs

     total energy              =    -333.18060817 Ry
     estimated scf accuracy    <       0.00002989 Ry

     iteration #  4     ecut=    30.00 Ry     beta= 0.70
     Davidson diagonalization with overlap
     ethr =  6.79E-08,  avg # of iterations =  3.7

     total cpu time spent up to now is       15.2 secs

     total energy              =    -333.18061239 Ry
     estimated scf accuracy    <       0.00000170 Ry

     iteration #  5     ecut=    30.00 Ry     beta= 0.70
     Davidson diagonalization with overlap
     ethr =  3.87E-09,  avg # of iterations =  5.3

     total cpu time spent up to now is       15.7 secs

     total energy              =    -333.18061362 Ry
     estimated scf accuracy    <       0.00000067 Ry

     iteration #  6     ecut=    30.00 Ry     beta= 0.70
     Davidson diagonalization with overlap
     ethr =  1.53E-09,  avg # of iterations =  2.8

     total cpu time spent up to now is       16.1 secs

     total energy              =    -333.18061362 Ry
     estimated scf accuracy    <       0.00000021 Ry

     iteration #  7     ecut=    30.00 Ry     beta= 0.70
     Davidson diagonalization with overlap
     ethr =  4.73E-10,  avg # of iterations =  4.7

     total cpu time spent up to now is       16.5 secs

     total energy              =    -333.18061369 Ry
     estimated scf accuracy    <       0.00000002 Ry

     iteration #  8     ecut=    30.00 Ry     beta= 0.70
     Davidson diagonalization with overlap
     ethr =  3.74E-11,  avg # of iterations =  2.3

     total cpu time spent up to now is       16.9 secs

     total energy              =    -333.18061368 Ry
     estimated scf accuracy    <          7.6E-09 Ry

     iteration #  9     ecut=    30.00 Ry     beta= 0.70
     Davidson diagonalization with overlap
     ethr =  1.73E-11,  avg # of iterations =  4.3

     total cpu time spent up to now is       17.3 secs

     End of self-consistent calculation

          k = 0.1250 0.1250 0.1250 (  1090 PWs)   bands (ev):

   -44.5731 -21.2427 -21.1777 -21.1767  -6.3270  -5.2742  -5.2048  -3.9747
    -3.9662  -3.9543  -3.7868  -3.7785   4.6438   7.2909   7.3283   8.0822
     9.0137   9.1131   9.7169   9.8428  10.0651  10.1864

          k = 0.1250 0.1250 0.3750 (  1095 PWs)   bands (ev):

   -44.5718 -21.3014 -21.1754 -21.1745  -5.8814  -5.1332  -5.0785  -4.0338
    -3.9700  -3.9494  -3.8770  -3.7581   3.8813   6.8230   7.2188   7.8436
     8.5148   8.6499   9.4416   9.8982  10.1915  10.9357

          k = 0.1250 0.3750 0.3750 (  1087 PWs)   bands (ev):

   -44.5706 -21.2978 -21.2310 -21.1729  -5.6670  -5.0391  -4.9236  -4.0074
    -3.9626  -3.9085  -3.8165  -3.6512   3.5347   6.6859   6.9768   7.1922
     7.5216   8.7309   9.3857   9.5397  10.0567  10.6893

          k = 0.3750 0.3750 0.3750 (  1082 PWs)   bands (ev):

   -44.5693 -21.2953 -21.2286 -21.2284  -5.3173  -5.1468  -5.1015  -3.9202
    -3.9106  -3.6309  -3.5638  -3.5425   4.1599   5.9119   5.9736   6.6943
     7.1322   7.1730   8.0034  10.6224  10.6779  10.7778

          k = 0.3750-0.1250 0.1250 (  1095 PWs)   bands (ev):

   -44.5719 -21.2406 -21.2346 -21.1750  -5.9342  -5.1373  -5.0489  -4.0300
    -3.9645  -3.9524  -3.8855  -3.7516   3.9105   6.9002   7.3779   7.8532
     8.4442   8.8113   9.3093   9.9114  10.0268  10.8577

          k = 0.3750-0.3750 0.1250 (  1087 PWs)   bands (ev):

   -44.5706 -21.2386 -21.2313 -21.2307  -5.7624  -4.9751  -4.8992  -3.9987
    -3.9594  -3.8995  -3.8133  -3.6856   3.5605   6.8454   6.9024   7.1774
     7.4834   8.6958   9.5085   9.5151  10.0280  10.7806

     highest occupied level (ev):    10.9357

!    total energy              =    -333.18061369 Ry
     estimated scf accuracy    <          2.3E-09 Ry

     The total energy is the sum of the following terms:
     one-electron contribution =     -76.78393637 Ry
     hartree contribution      =      66.39891362 Ry
     xc contribution           =     -49.66212148 Ry
     ewald contribution        =    -273.13346946 Ry

     convergence has been achieved in   9 iterations

     Forces acting on atoms (cartesian axes, Ry/au):

     atom    1 type  2   force =     0.00000000    0.00000000   -0.01800726
     atom    2 type  3   force =     0.00000000    0.00000000    0.03484522
     atom    3 type  1   force =     0.00000000    0.00000000   -0.00548608
     atom    4 type  1   force =     0.00000000    0.00000000   -0.00548608
     atom    5 type  1   force =     0.00000000    0.00000000   -0.00586581

     Total force =     0.009726     Total SCF correction =     0.000012


     Computing stress (Cartesian axis) and pressure

          total   stress  (Ry/bohr**3)                   (kbar)     P=       -5.43
  -0.00008979   0.00000000   0.00000000          -13.21        0.00        0.00
   0.00000000  -0.00008979   0.00000000            0.00      -13.21        0.00
   0.00000000   0.00000000   0.00006887            0.00        0.00       10.13

     Energy error            =      3.7E-04 Ry
     Gradient error          =      5.9E-03 Ry/Bohr

     number of scf cycles    =   3
     number of bfgs steps    =   2

     energy             old  =    -333.1802434649 Ry
     energy             new  =    -333.1806136858 Ry

     CASE: energy            _new < energy            _old

     new trust radius        =       0.0287034301 bohr
     new conv_thr            =       0.0000000037 Ry


ATOMIC_POSITIONS (angstrom)
Pb               0.0000000000        0.0000000000        0.0000000000    0   0   0
Ti               1.9375000000        1.9375000000        1.7825000000    0   0   0
O                0.0000000000        1.9375000000        1.9271745877
O                1.9375000000        0.0000000000        1.9271745877
O                1.9375000000        1.9375000000       -0.0448846358


     Message from routine punch:
     Nothing written, as per user request (disk_io='none')
     NEW-OLD atomic charge density approx. for the potential

     total cpu time spent up to now is       18.8 secs

     Self-consistent Calculation

     iteration #  1     ecut=    30.00 Ry     beta= 0.70
     Davidson diagonalization with overlap
     ethr =  1.00E-06,  avg # of iterations =  6.0

     total cpu time spent up to now is       19.2 secs

     total energy              =    -333.18078900 Ry
     estimated scf accuracy    <       0.00016472 Ry

     iteration #  2     ecut=    30.00 Ry     beta= 0.70
     Davidson diagonalization with overlap
     ethr =  3.74E-07,  avg # of iterations =  4.7

     total cpu time spent up to now is       19.7 secs

     total energy              =    -333.18079245 Ry
     estimated scf accuracy    <       0.00014096 Ry

     iteration #  3     ecut=    30.00 Ry     beta= 0.70
     Davidson diagonalization with overlap
     ethr =  3.20E-07,  avg # of iterations =  4.5

     total cpu time spent up to now is       20.2 secs

     total energy              =    -333.18082697 Ry
     estimated scf accuracy    <       0.00003071 Ry

     iteration #  4     ecut=    30.00 Ry     beta= 0.70
     Davidson diagonalization with overlap
     ethr =  6.98E-08,  avg # of iterations =  3.3

     total cpu time spent up to now is       20.6 secs

     total energy              =    -333.18083051 Ry
     estimated scf accuracy    <       0.00000229 Ry

     iteration #  5     ecut=    30.00 Ry     beta= 0.70
     Davidson diagonalization with overlap
     ethr =  5.21E-09,  avg # of iterations =  5.2

     total cpu time spent up to now is       21.0 secs

     total energy              =    -333.18083221 Ry
     estimated scf accuracy    <       0.00000144 Ry

     iteration #  6     ecut=    30.00 Ry     beta= 0.70
     Davidson diagonalization with overlap
     ethr =  3.27E-09,  avg # of iterations =  2.7

     total cpu time spent up to now is       21.4 secs

     total energy              =    -333.18083212 Ry
     estimated scf accuracy    <       0.00000060 Ry

     iteration #  7     ecut=    30.00 Ry     beta= 0.70
     Davidson diagonalization with overlap
     ethr =  1.36E-09,  avg # of iterations =  4.5

     total cpu time spent up to now is       21.8 secs

     total energy              =    -333.18083228 Ry
     estimated scf accuracy    <       0.00000002 Ry

     iteration #  8     ecut=    30.00 Ry     beta= 0.70
     Davidson diagonalization with overlap
     ethr =  4.71E-11,  avg # of iterations =  4.0

     total cpu time spent up to now is       22.2 secs

     End of self-consistent calculation

          k = 0.1250 0.1250 0.1250 (  1090 PWs)   bands (ev):

   -44.5934 -21.2480 -21.1987 -21.1977  -6.3282  -5.2693  -5.2127  -3.9705
    -3.9633  -3.9513  -3.7834  -3.7763   4.6473   7.2937   7.3230   8.0823
     9.0371   9.1249   9.7515   9.8497  10.0543  10.1866

          k = 0.1250 0.1250 0.3750 (  1095 PWs)   bands (ev):

   -44.5922 -21.3065 -21.1965 -21.1955  -5.8885  -5.1230  -5.0875  -4.0298
    -3.9657  -3.9466  -3.8748  -3.7544   3.8915   6.8250   7.2366   7.8387
     8.5102   8.6715   9.4380   9.9056  10.1816  10.9305

          k = 0.1250 0.3750 0.3750 (  1087 PWs)   bands (ev):

   -44.5909 -21.3029 -21.2520 -21.1939  -5.6738  -5.0297  -4.9281  -4.0034
    -3.9587  -3.9049  -3.8132  -3.6502   3.5403   6.7027   6.9620   7.1915
     7.5173   8.7240   9.4035   9.5333  10.0624  10.6975

          k = 0.3750 0.3750 0.3750 (  1082 PWs)   bands (ev):

   -44.5896 -21.3004 -21.2496 -21.2494  -5.3136  -5.1446  -5.1067  -3.9160
    -3.9078  -3.6261  -3.5608  -3.5421   4.1626   5.9215   5.9707   6.6955
     7.1227   7.1553   8.0079  10.6368  10.6872  10.7724

          k = 0.3750-0.1250 0.1250 (  1095 PWs)   bands (ev):

   -44.5922 -21.2558 -21.2456 -21.1961  -5.9321  -5.1360  -5.0552  -4.0267
    -3.9609  -3.9492  -3.8816  -3.7491   3.9142   6.8918   7.3768   7.8524
     8.4462   8.8068   9.3274   9.9195  10.0428  10.8632

          k = 0.3750-0.3750 0.1250 (  1087 PWs)   bands (ev):

   -44.5909 -21.2528 -21.2517 -21.2434  -5.7524  -4.9806  -4.9060  -3.9960
    -3.9560  -3.8971  -3.8106  -3.6796   3.5599   6.8402   6.8963   7.1866
     7.4916   8.6950   9.5072   9.5131  10.0323  10.7738

     highest occupied level (ev):    10.9305

!    total energy              =    -333.18083228 Ry
     estimated scf accuracy    <          3.3E-09 Ry

     The total energy is the sum of the following terms:
     one-electron contribution =     -76.67860597 Ry
     hartree contribution      =      66.34101124 Ry
     xc contribution           =     -49.65740682 Ry
     ewald contribution        =    -273.18583073 Ry

     convergence has been achieved in   8 iterations

     Forces acting on atoms (cartesian axes, Ry/au):

     atom    1 type  2   force =     0.00000000    0.00000000   -0.01775107
     atom    2 type  3   force =     0.00000000    0.00000000    0.03010677
     atom    3 type  1   force =     0.00000000    0.00000000   -0.00711536
     atom    4 type  1   force =     0.00000000    0.00000000   -0.00711536
     atom    5 type  1   force =     0.00000000    0.00000000    0.00187502

     Total force =     0.010236     Total SCF correction =     0.000028


     Computing stress (Cartesian axis) and pressure

          total   stress  (Ry/bohr**3)                   (kbar)     P=       -8.44
  -0.00009505   0.00000000   0.00000000          -13.98        0.00        0.00
   0.00000000  -0.00009505   0.00000000            0.00      -13.98        0.00
   0.00000000   0.00000000   0.00001803            0.00        0.00        2.65

     Energy error            =      2.2E-04 Ry
     Gradient error          =      7.1E-03 Ry/Bohr

     number of scf cycles    =   4
     number of bfgs steps    =   3

     energy             old  =    -333.1806136858 Ry
     energy             new  =    -333.1808322812 Ry

     CASE: energy            _new < energy            _old

     new trust radius        =       0.0256212977 bohr
     new conv_thr            =       0.0000000022 Ry


ATOMIC_POSITIONS (angstrom)
Pb               0.0000000000        0.0000000000        0.0000000000    0   0   0
Ti               1.9375000000        1.9375000000        1.7825000000    0   0   0
O                0.0000000000        1.9375000000        1.9159255613
O                1.9375000000        0.0000000000        1.9159255613
O                1.9375000000        1.9375000000       -0.0584428427


     Message from routine punch:
     Nothing written, as per user request (disk_io='none')
     NEW-OLD atomic charge density approx. for the potential

     total cpu time spent up to now is       23.7 secs

     Self-consistent Calculation

     iteration #  1     ecut=    30.00 Ry     beta= 0.70
     Davidson diagonalization with overlap
     ethr =  1.00E-06,  avg # of iterations =  7.2

     total cpu time spent up to now is       24.2 secs

     total energy              =    -333.18101118 Ry
     estimated scf accuracy    <       0.00016099 Ry

     iteration #  2     ecut=    30.00 Ry     beta= 0.70
     Davidson diagonalization with overlap
     ethr =  3.66E-07,  avg # of iterations =  4.5

     total cpu time spent up to now is       24.6 secs

     total energy              =    -333.18101148 Ry
     estimated scf accuracy    <       0.00010074 Ry

     iteration #  3     ecut=    30.00 Ry     beta= 0.70
     Davidson diagonalization with overlap
     ethr =  2.29E-07,  avg # of iterations =  4.5

     total cpu time spent up to now is       25.1 secs

     total energy              =    -333.18103849 Ry
     estimated scf accuracy    <       0.00004567 Ry

     iteration #  4     ecut=    30.00 Ry     beta= 0.70
     Davidson diagonalization with overlap
     ethr =  1.04E-07,  avg # of iterations =  3.3

     total cpu time spent up to now is       25.4 secs

     total energy              =    -333.18104226 Ry
     estimated scf accuracy    <       0.00000423 Ry

     iteration #  5     ecut=    30.00 Ry     beta= 0.70
     Davidson diagonalization with overlap
     ethr =  9.61E-09,  avg # of iterations =  5.0

     total cpu time spent up to now is       25.9 secs

     total energy              =    -333.18104540 Ry
     estimated scf accuracy    <       0.00000374 Ry

     iteration #  6     ecut=    30.00 Ry     beta= 0.70
     Davidson diagonalization with overlap
     ethr =  8.49E-09,  avg # of iterations =  1.2

     total cpu time spent up to now is       26.3 secs

     total energy              =    -333.18104495 Ry
     estimated scf accuracy    <       0.00000195 Ry

     iteration #  7     ecut=    30.00 Ry     beta= 0.70
     Davidson diagonalization with overlap
     ethr =  4.44E-09,  avg # of iterations =  3.3

     total cpu time spent up to now is       26.7 secs

     total energy              =    -333.18104535 Ry
     estimated scf accuracy    <       0.00000004 Ry

     iteration #  8     ecut=    30.00 Ry     beta= 0.70
     Davidson diagonalization with overlap
     ethr =  9.46E-11,  avg # of iterations =  5.7

     total cpu time spent up to now is       27.1 secs

     total energy              =    -333.18104538 Ry
     estimated scf accuracy    <          3.1E-09 Ry

     iteration #  9     ecut=    30.00 Ry     beta= 0.70
     Davidson diagonalization with overlap
     ethr =  7.00E-12,  avg # of iterations =  5.5

     total cpu time spent up to now is       27.5 secs

     total energy              =    -333.18104538 Ry
     estimated scf accuracy    <          8.5E-09 Ry

     iteration # 10     ecut=    30.00 Ry     beta= 0.70
     Davidson diagonalization with overlap
     ethr =  7.00E-12,  avg # of iterations =  4.5

     total cpu time spent up to now is       28.0 secs

     End of self-consistent calculation

          k = 0.1250 0.1250 0.1250 (  1090 PWs)   bands (ev):

   -44.6097 -21.2526 -21.2159 -21.2148  -6.3292  -5.2658  -5.2219  -3.9671
    -3.9609  -3.9489  -3.7808  -3.7746   4.6502   7.2971   7.3190   8.0849
     9.0577   9.1326   9.7876   9.8586  10.0416  10.1812

          k = 0.1250 0.1250 0.3750 (  1095 PWs)   bands (ev):

   -44.6085 -21.3110 -21.2136 -21.2127  -5.8957  -5.1138  -5.0980  -4.0264
    -3.9622  -3.9444  -3.8728  -3.7514   3.9009   6.8281   7.2573   7.8379
     8.5002   8.6886   9.4321   9.9146  10.1706  10.9231

          k = 0.1250 0.3750 0.3750 (  1087 PWs)   bands (ev):

   -44.6072 -21.3074 -21.2692 -21.2111  -5.6809  -5.0219  -4.9322  -4.0002
    -3.9557  -3.9020  -3.8105  -3.6495   3.5448   6.7204   6.9439   7.1913
     7.5122   8.7167   9.4161   9.5262  10.0659  10.7052

          k = 0.3750 0.3750 0.3750 (  1082 PWs)   bands (ev):

   -44.6059 -21.3049 -21.2668 -21.2666  -5.3104  -5.1423  -5.1121  -3.9126
    -3.9057  -3.6221  -3.5581  -3.5417   4.1634   5.9290   5.9659   6.6994
     7.1091   7.1336   8.0114  10.6493  10.6935  10.7675

          k = 0.3750-0.1250 0.1250 (  1095 PWs)   bands (ev):

   -44.6085 -21.2729 -21.2504 -21.2132  -5.9299  -5.1363  -5.0617  -4.0242
    -3.9581  -3.9466  -3.8778  -3.7470   3.9169   6.8820   7.3732   7.8523
     8.4485   8.7984   9.3421   9.9266  10.0586  10.8671

          k = 0.3750-0.3750 0.1250 (  1087 PWs)   bands (ev):

   -44.6072 -21.2698 -21.2689 -21.2482  -5.7424  -4.9864  -4.9130  -3.9940
    -3.9531  -3.8947  -3.8080  -3.6745   3.5580   6.8349   6.8882   7.1907
     7.4941   8.6937   9.5024   9.5108  10.0375  10.7663

     highest occupied level (ev):    10.9231

!    total energy              =    -333.18104538 Ry
     estimated scf accuracy    <          2.1E-10 Ry

     The total energy is the sum of the following terms:
     one-electron contribution =     -76.63954470 Ry
     hartree contribution      =      66.31733803 Ry
     xc contribution           =     -49.65453503 Ry
     ewald contribution        =    -273.20430369 Ry

     convergence has been achieved in  10 iterations

     Forces acting on atoms (cartesian axes, Ry/au):

     atom    1 type  2   force =     0.00000000    0.00000000   -0.01708916
     atom    2 type  3   force =     0.00000000    0.00000000    0.02649862
     atom    3 type  1   force =     0.00000000    0.00000000   -0.00786938
     atom    4 type  1   force =     0.00000000    0.00000000   -0.00786938
     atom    5 type  1   force =     0.00000000    0.00000000    0.00632930

     Total force =     0.012803     Total SCF correction =     0.000002


     Computing stress (Cartesian axis) and pressure

          total   stress  (Ry/bohr**3)                   (kbar)     P=      -10.06
  -0.00009437   0.00000000   0.00000000          -13.88        0.00        0.00
   0.00000000  -0.00009437   0.00000000            0.00      -13.88        0.00
   0.00000000   0.00000000  -0.00001637            0.00        0.00       -2.41

     Energy error            =      2.1E-04 Ry
     Gradient error          =      7.9E-03 Ry/Bohr

     number of scf cycles    =   5
     number of bfgs steps    =   4

     energy             old  =    -333.1808322812 Ry
     energy             new  =    -333.1810453784 Ry

     CASE: energy            _new < energy            _old

     new trust radius        =       0.0281834275 bohr
     new conv_thr            =       0.0000000021 Ry


ATOMIC_POSITIONS (angstrom)
Pb               0.0000000000        0.0000000000        0.0000000000    0   0   0
Ti               1.9375000000        1.9375000000        1.7825000000    0   0   0
O                0.0000000000        1.9375000000        1.9010115337
O                1.9375000000        0.0000000000        1.9010115337
O                1.9375000000        1.9375000000       -0.0714902424


     Message from routine punch:
     Nothing written, as per user request (disk_io='none')
     NEW-OLD atomic charge density approx. for the potential

     total cpu time spent up to now is       29.4 secs

     Self-consistent Calculation

     iteration #  1     ecut=    30.00 Ry     beta= 0.70
     Davidson diagonalization with overlap
     ethr =  1.00E-06,  avg # of iterations =  7.0

     total cpu time spent up to now is       30.0 secs

     total energy              =    -333.18127266 Ry
     estimated scf accuracy    <       0.00019138 Ry

     iteration #  2     ecut=    30.00 Ry     beta= 0.70
     Davidson diagonalization with overlap
     ethr =  4.35E-07,  avg # of iterations =  4.3

     total cpu time spent up to now is       30.4 secs

     total energy              =    -333.18127617 Ry
     estimated scf accuracy    <       0.00008085 Ry

     iteration #  3     ecut=    30.00 Ry     beta= 0.70
     Davidson diagonalization with overlap
     ethr =  1.84E-07,  avg # of iterations =  4.8

     total cpu time spent up to now is       30.9 secs

     total energy              =    -333.18129758 Ry
     estimated scf accuracy    <       0.00006576 Ry

     iteration #  4     ecut=    30.00 Ry     beta= 0.70
     Davidson diagonalization with overlap
     ethr =  1.49E-07,  avg # of iterations =  3.2

     total cpu time spent up to now is       31.3 secs

     total energy              =    -333.18130517 Ry
     estimated scf accuracy    <       0.00000271 Ry

     iteration #  5     ecut=    30.00 Ry     beta= 0.70
     Davidson diagonalization with overlap
     ethr =  6.17E-09,  avg # of iterations =  6.0

     total cpu time spent up to now is       31.8 secs

     total energy              =    -333.18130810 Ry
     estimated scf accuracy    <       0.00000572 Ry

     iteration #  6     ecut=    30.00 Ry     beta= 0.70
     Davidson diagonalization with overlap
     ethr =  6.17E-09,  avg # of iterations =  2.3

     total cpu time spent up to now is       32.2 secs

     total energy              =    -333.18130755 Ry
     estimated scf accuracy    <       0.00000314 Ry

     iteration #  7     ecut=    30.00 Ry     beta= 0.70
     Davidson diagonalization with overlap
     ethr =  6.17E-09,  avg # of iterations =  3.7

     total cpu time spent up to now is       32.6 secs

     total energy              =    -333.18130784 Ry
     estimated scf accuracy    <       0.00000033 Ry

     iteration #  8     ecut=    30.00 Ry     beta= 0.70
     Davidson diagonalization with overlap
     ethr =  7.59E-10,  avg # of iterations =  4.5

     total cpu time spent up to now is       33.0 secs

     total energy              =    -333.18130798 Ry
     estimated scf accuracy    <       0.00000004 Ry

     iteration #  9     ecut=    30.00 Ry     beta= 0.70
     Davidson diagonalization with overlap
     ethr =  9.81E-11,  avg # of iterations =  2.7

     total cpu time spent up to now is       33.4 secs

     total energy              =    -333.18130797 Ry
     estimated scf accuracy    <       0.00000001 Ry

     iteration # 10     ecut=    30.00 Ry     beta= 0.70
     Davidson diagonalization with overlap
     ethr =  2.74E-11,  avg # of iterations =  4.7

     total cpu time spent up to now is       33.8 secs

     total energy              =    -333.18130798 Ry
     estimated scf accuracy    <          2.7E-09 Ry

     iteration # 11     ecut=    30.00 Ry     beta= 0.70
     Davidson diagonalization with overlap
     ethr =  6.25E-12,  avg # of iterations =  2.7

     total cpu time spent up to now is       34.2 secs

     End of self-consistent calculation

          k = 0.1250 0.1250 0.1250 (  1090 PWs)   bands (ev):

   -44.6236 -21.2568 -21.2307 -21.2297  -6.3306  -5.2632  -5.2326  -3.9638
    -3.9586  -3.9464  -3.7785  -3.7723   4.6530   7.3006   7.3160   8.0889
     9.0763   9.1376   9.8258   9.8685  10.0268  10.1707

          k = 0.1250 0.1250 0.3750 (  1095 PWs)   bands (ev):

   -44.6224 -21.3150 -21.2285 -21.2275  -5.9038  -5.1102  -5.1054  -4.0229
    -3.9587  -3.9422  -3.8704  -3.7486   3.9101   6.8317   7.2796   7.8388
     8.4863   8.7033   9.4239   9.9241  10.1579  10.9143

          k = 0.1250 0.3750 0.3750 (  1087 PWs)   bands (ev):

   -44.6211 -21.3114 -21.2842 -21.2259  -5.6890  -5.0158  -4.9362  -3.9969
    -3.9527  -3.8989  -3.8076  -3.6483   3.5487   6.7389   6.9230   7.1905
     7.5067   8.7085   9.4246   9.5186  10.0682  10.7123

          k = 0.3750 0.3750 0.3750 (  1082 PWs)   bands (ev):

   -44.6198 -21.3089 -21.2818 -21.2815  -5.3081  -5.1401  -5.1183  -3.9092
    -3.9034  -3.6184  -3.5550  -3.5407   4.1624   5.9353   5.9597   6.7043
     7.0929   7.1091   8.0153  10.6603  10.6964  10.7635

          k = 0.3750-0.1250 0.1250 (  1095 PWs)   bands (ev):

   -44.6224 -21.2879 -21.2545 -21.2280  -5.9282  -5.1381  -5.0689  -4.0216
    -3.9553  -3.9440  -3.8735  -3.7445   3.9191   6.8711   7.3678   7.8526
     8.4508   8.7875   9.3544   9.9323  10.0738  10.8703

          k = 0.3750-0.3750 0.1250 (  1087 PWs)   bands (ev):

   -44.6211 -21.2847 -21.2838 -21.2524  -5.7325  -4.9935  -4.9214  -3.9920
    -3.9499  -3.8916  -3.8048  -3.6696   3.5549   6.8290   6.8785   7.1915
     7.4934   8.6921   9.4952   9.5082  10.0435  10.7576

     highest occupied level (ev):    10.9143

!    total energy              =    -333.18130798 Ry
     estimated scf accuracy    <          8.7E-10 Ry

     The total energy is the sum of the following terms:
     one-electron contribution =     -76.64544873 Ry
     hartree contribution      =      66.31665442 Ry
     xc contribution           =     -49.65289429 Ry
     ewald contribution        =    -273.19961938 Ry

     convergence has been achieved in  11 iterations

     Forces acting on atoms (cartesian axes, Ry/au):

     atom    1 type  2   force =     0.00000000    0.00000000   -0.01611685
     atom    2 type  3   force =     0.00000000    0.00000000    0.02360763
     atom    3 type  1   force =     0.00000000    0.00000000   -0.00806048
     atom    4 type  1   force =     0.00000000    0.00000000   -0.00806048
     atom    5 type  1   force =     0.00000000    0.00000000    0.00863017

     Total force =     0.014298     Total SCF correction =     0.000010


     Computing stress (Cartesian axis) and pressure

          total   stress  (Ry/bohr**3)                   (kbar)     P=      -10.94
  -0.00009074   0.00000000   0.00000000          -13.35        0.00        0.00
   0.00000000  -0.00009074   0.00000000            0.00      -13.35        0.00
   0.00000000   0.00000000  -0.00004159            0.00        0.00       -6.12

     Energy error            =      2.6E-04 Ry
     Gradient error          =      8.6E-03 Ry/Bohr

     number of scf cycles    =   6
     number of bfgs steps    =   5

     energy             old  =    -333.1810453784 Ry
     energy             new  =    -333.1813079795 Ry

     CASE: energy            _new < energy            _old

     new trust radius        =       0.0422751413 bohr
     new conv_thr            =       0.0000000026 Ry


ATOMIC_POSITIONS (angstrom)
Pb               0.0000000000        0.0000000000        0.0000000000    0   0   0
Ti               1.9375000000        1.9375000000        1.7825000000    0   0   0
O                0.0000000000        1.9375000000        1.8786404924
O                1.9375000000        0.0000000000        1.8786404924
O                1.9375000000        1.9375000000       -0.0880592456


     Message from routine punch:
     Nothing written, as per user request (disk_io='none')
     NEW-OLD atomic charge density approx. for the potential

     total cpu time spent up to now is       35.6 secs

     Self-consistent Calculation

     iteration #  1     ecut=    30.00 Ry     beta= 0.70
     Davidson diagonalization with overlap
     ethr =  1.00E-06,  avg # of iterations =  8.5

     total cpu time spent up to now is       36.2 secs

     total energy              =    -333.18162724 Ry
     estimated scf accuracy    <       0.00037117 Ry

     iteration #  2     ecut=    30.00 Ry     beta= 0.70
     Davidson diagonalization with overlap
     ethr =  8.44E-07,  avg # of iterations =  4.0

     total cpu time spent up to now is       36.6 secs

     total energy              =    -333.18165874 Ry
     estimated scf accuracy    <       0.00008309 Ry

     iteration #  3     ecut=    30.00 Ry     beta= 0.70
     Davidson diagonalization with overlap
     ethr =  1.89E-07,  avg # of iterations =  5.0

     total cpu time spent up to now is       37.0 secs

     total energy              =    -333.18167626 Ry
     estimated scf accuracy    <       0.00007944 Ry

     iteration #  4     ecut=    30.00 Ry     beta= 0.70
     Davidson diagonalization with overlap
     ethr =  1.81E-07,  avg # of iterations =  3.8

     total cpu time spent up to now is       37.4 secs

     total energy              =    -333.18169051 Ry
     estimated scf accuracy    <       0.00000137 Ry

     iteration #  5     ecut=    30.00 Ry     beta= 0.70
     Davidson diagonalization with overlap
     ethr =  3.12E-09,  avg # of iterations =  6.3

     total cpu time spent up to now is       37.9 secs

     total energy              =    -333.18169181 Ry
     estimated scf accuracy    <       0.00000521 Ry

     iteration #  6     ecut=    30.00 Ry     beta= 0.70
     Davidson diagonalization with overlap
     ethr =  3.12E-09,  avg # of iterations =  4.2

     total cpu time spent up to now is       38.4 secs

     total energy              =    -333.18169205 Ry
     estimated scf accuracy    <       0.00000069 Ry

     iteration #  7     ecut=    30.00 Ry     beta= 0.70
     Davidson diagonalization with overlap
     ethr =  1.56E-09,  avg # of iterations =  4.5

     total cpu time spent up to now is       38.8 secs

     total energy              =    -333.18169221 Ry
     estimated scf accuracy    <       0.00000002 Ry

     iteration #  8     ecut=    30.00 Ry     beta= 0.70
     Davidson diagonalization with overlap
     ethr =  5.48E-11,  avg # of iterations =  4.3

     total cpu time spent up to now is       39.2 secs

     total energy              =    -333.18169221 Ry
     estimated scf accuracy    <       0.00000003 Ry

     iteration #  9     ecut=    30.00 Ry     beta= 0.70
     Davidson diagonalization with overlap
     ethr =  5.48E-11,  avg # of iterations =  3.7

     total cpu time spent up to now is       39.7 secs

     End of self-consistent calculation

          k = 0.1250 0.1250 0.1250 (  1090 PWs)   bands (ev):

   -44.6390 -21.2618 -21.2474 -21.2464  -6.3338  -5.2602  -5.2483  -3.9590
    -3.9551  -3.9425  -3.7752  -3.7677   4.6566   7.3039   7.3129   8.0942
     9.0972   9.1409   9.8757   9.8806  10.0061  10.1518

          k = 0.1250 0.1250 0.3750 (  1095 PWs)   bands (ev):

   -44.6378 -21.3198 -21.2452 -21.2443  -5.9160  -5.1281  -5.0947  -4.0174
    -3.9536  -3.9385  -3.8655  -3.7445   3.9217   6.8369   7.3069   7.8393
     8.4667   8.7202   9.4110   9.9352  10.1398  10.9030

          k = 0.1250 0.3750 0.3750 (  1087 PWs)   bands (ev):

   -44.6365 -21.3163 -21.3011 -21.2426  -5.7009  -5.0117  -4.9405  -3.9921
    -3.9483  -3.8940  -3.8029  -3.6453   3.5538   6.7624   6.8945   7.1877
     7.4999   8.6967   9.4303   9.5096  10.0708  10.7202

          k = 0.3750 0.3750 0.3750 (  1082 PWs)   bands (ev):

   -44.6353 -21.3138 -21.2987 -21.2984  -5.3074  -5.1369  -5.1281  -3.9042
    -3.8998  -3.6136  -3.5499  -3.5381   4.1591   5.9425   5.9505   6.7098
     7.0717   7.0775   8.0226  10.6723  10.6941  10.7606

          k = 0.3750-0.1250 0.1250 (  1095 PWs)   bands (ev):

   -44.6378 -21.3047 -21.2596 -21.2447  -5.9274  -5.1420  -5.0796  -4.0178
    -3.9511  -3.9398  -3.8663  -3.7402   3.9214   6.8563   7.3590   7.8530
     8.4527   8.7723   9.3673   9.9371  10.0911  10.8743

          k = 0.3750-0.3750 0.1250 (  1087 PWs)   bands (ev):

   -44.6365 -21.3016 -21.3007 -21.2574  -5.7203  -5.0047  -4.9347  -3.9887
    -3.9447  -3.8857  -3.7987  -3.6628   3.5493   6.8206   6.8647   7.1899
     7.4909   8.6906   9.4847   9.5045  10.0523  10.7447

     highest occupied level (ev):    10.9030

!    total energy              =    -333.18169221 Ry
     estimated scf accuracy    <          7.8E-10 Ry

     The total energy is the sum of the following terms:
     one-electron contribution =     -76.69605685 Ry
     hartree contribution      =      66.33767097 Ry
     xc contribution           =     -49.65201120 Ry
     ewald contribution        =    -273.17129513 Ry

     convergence has been achieved in   9 iterations

     Forces acting on atoms (cartesian axes, Ry/au):

     atom    1 type  2   force =     0.00000000    0.00000000   -0.01466002
     atom    2 type  3   force =     0.00000000    0.00000000    0.02082675
     atom    3 type  1   force =     0.00000000    0.00000000   -0.00787143
     atom    4 type  1   force =     0.00000000    0.00000000   -0.00787143
     atom    5 type  1   force =     0.00000000    0.00000000    0.00957612

     Total force =     0.014684     Total SCF correction =     0.000015


     Computing stress (Cartesian axis) and pressure

          total   stress  (Ry/bohr**3)                   (kbar)     P=      -11.55
  -0.00008505   0.00000000   0.00000000          -12.51        0.00        0.00
   0.00000000  -0.00008505   0.00000000            0.00      -12.51        0.00
   0.00000000   0.00000000  -0.00006538            0.00        0.00       -9.62

     Energy error            =      3.8E-04 Ry
     Gradient error          =      9.6E-03 Ry/Bohr

     number of scf cycles    =   7
     number of bfgs steps    =   6

     energy             old  =    -333.1813079795 Ry
     energy             new  =    -333.1816922110 Ry

     CASE: energy            _new < energy            _old

     new trust radius        =       0.0634127119 bohr
     new conv_thr            =       0.0000000038 Ry


ATOMIC_POSITIONS (angstrom)
Pb               0.0000000000        0.0000000000        0.0000000000    0   0   0
Ti               1.9375000000        1.9375000000        1.7825000000    0   0   0
O                0.0000000000        1.9375000000        1.8450839304
O                1.9375000000        0.0000000000        1.8450839304
O                1.9375000000        1.9375000000       -0.1111483688


     Message from routine punch:
     Nothing written, as per user request (disk_io='none')
     NEW-OLD atomic charge density approx. for the potential

     total cpu time spent up to now is       41.2 secs

     Self-consistent Calculation

     iteration #  1     ecut=    30.00 Ry     beta= 0.70
     Davidson diagonalization with overlap
     ethr =  1.00E-06,  avg # of iterations =  9.2

     total cpu time spent up to now is       41.8 secs

     total energy              =    -333.18211436 Ry
     estimated scf accuracy    <       0.00078648 Ry

     iteration #  2     ecut=    30.00 Ry     beta= 0.70
     Davidson diagonalization with overlap
     ethr =  1.79E-06,  avg # of iterations =  2.5

     total cpu time spent up to now is       42.2 secs

     total energy              =    -333.18221904 Ry
     estimated scf accuracy    <       0.00007456 Ry

     iteration #  3     ecut=    30.00 Ry     beta= 0.70
     Davidson diagonalization with overlap
     ethr =  1.69E-07,  avg # of iterations =  4.2

     total cpu time spent up to now is       42.7 secs

     total energy              =    -333.18223214 Ry
     estimated scf accuracy    <       0.00003598 Ry

     iteration #  4     ecut=    30.00 Ry     beta= 0.70
     Davidson diagonalization with overlap
     ethr =  8.18E-08,  avg # of iterations =  4.7

     total cpu time spent up to now is       43.2 secs

     total energy              =    -333.18224042 Ry
     estimated scf accuracy    <       0.00001049 Ry

     iteration #  5     ecut=    30.00 Ry     beta= 0.70
     Davidson diagonalization with overlap
     ethr =  2.38E-08,  avg # of iterations =  3.8

     total cpu time spent up to now is       43.6 secs

     total energy              =    -333.18224260 Ry
     estimated scf accuracy    <       0.00000031 Ry

     iteration #  6     ecut=    30.00 Ry     beta= 0.70
     Davidson diagonalization with overlap
     ethr =  7.04E-10,  avg # of iterations =  5.5

     total cpu time spent up to now is       44.1 secs

     total energy              =    -333.18224270 Ry
     estimated scf accuracy    <       0.00000048 Ry

     iteration #  7     ecut=    30.00 Ry     beta= 0.70
     Davidson diagonalization with overlap
     ethr =  7.04E-10,  avg # of iterations =  4.3

     total cpu time spent up to now is       44.8 secs

     total energy              =    -333.18224275 Ry
     estimated scf accuracy    <       0.00000004 Ry

     iteration #  8     ecut=    30.00 Ry     beta= 0.70
     Davidson diagonalization with overlap
     ethr =  9.26E-11,  avg # of iterations =  4.5

     total cpu time spent up to now is       45.3 secs

     total energy              =    -333.18224276 Ry
     estimated scf accuracy    <          4.5E-09 Ry

     iteration #  9     ecut=    30.00 Ry     beta= 0.70
     Davidson diagonalization with overlap
     ethr =  1.03E-11,  avg # of iterations =  5.0

     total cpu time spent up to now is       45.8 secs

     End of self-consistent calculation

          k = 0.1250 0.1250 0.1250 (  1090 PWs)   bands (ev):

   -44.6570 -21.2690 -21.2667 -21.2660  -6.3412  -5.2721  -5.2561  -3.9510
    -3.9485  -3.9351  -3.7693  -3.7572   4.6615   7.3044   7.3095   8.1003
     9.1195   9.1407   9.8923   9.9390   9.9779  10.1219

          k = 0.1250 0.1250 0.3750 (  1095 PWs)   bands (ev):

   -44.6558 -21.3264 -21.2649 -21.2639  -5.9357  -5.1555  -5.0801  -4.0077
    -3.9448  -3.9315  -3.8547  -3.7374   3.9369   6.8441   7.3352   7.8347
     8.4433   8.7400   9.3910   9.9461  10.1129  10.8903

          k = 0.1250 0.3750 0.3750 (  1087 PWs)   bands (ev):

   -44.6545 -21.3230 -21.3208 -21.2622  -5.7198  -5.0160  -4.9416  -3.9835
    -3.9404  -3.8852  -3.7939  -3.6373   3.5616   6.7902   6.8564   7.1797
     7.4919   8.6790   9.4281   9.5025  10.0753  10.7284

          k = 0.3750 0.3750 0.3750 (  1082 PWs)   bands (ev):

   -44.6532 -21.3204 -21.3184 -21.3182  -5.3116  -5.1447  -5.1314  -3.8956
    -3.8929  -3.6062  -3.5404  -3.5311   4.1512   5.9370   5.9511   6.7131
     7.0392   7.0471   8.0388  10.6807  10.6844  10.7608

          k = 0.3750-0.1250 0.1250 (  1095 PWs)   bands (ev):

   -44.6558 -21.3245 -21.2665 -21.2642  -5.9298  -5.1497  -5.0965  -4.0108
    -3.9435  -3.9318  -3.8527  -3.7313   3.9243   6.8362   7.3457   7.8524
     8.4522   8.7531   9.3801   9.9388  10.1081  10.8811

          k = 0.3750-0.3750 0.1250 (  1087 PWs)   bands (ev):

   -44.6545 -21.3213 -21.3204 -21.2643  -5.7054  -5.0242  -4.9579  -3.9822
    -3.9348  -3.8733  -3.7861  -3.6522   3.5393   6.8076   6.8453   7.1864
     7.4886   8.6902   9.4712   9.4996  10.0661  10.7242

     highest occupied level (ev):    10.8903

!    total energy              =    -333.18224276 Ry
     estimated scf accuracy    <          1.0E-09 Ry

     The total energy is the sum of the following terms:
     one-electron contribution =     -76.81756762 Ry
     hartree contribution      =      66.39350398 Ry
     xc contribution           =     -49.65230590 Ry
     ewald contribution        =    -273.10587322 Ry

     convergence has been achieved in   9 iterations

     Forces acting on atoms (cartesian axes, Ry/au):

     atom    1 type  2   force =     0.00000000    0.00000000   -0.01274059
     atom    2 type  3   force =     0.00000000    0.00000000    0.01842891
     atom    3 type  1   force =     0.00000000    0.00000000   -0.00722833
     atom    4 type  1   force =     0.00000000    0.00000000   -0.00722833
     atom    5 type  1   force =     0.00000000    0.00000000    0.00876833

     Total force =     0.013468     Total SCF correction =     0.000003


     Computing stress (Cartesian axis) and pressure

          total   stress  (Ry/bohr**3)                   (kbar)     P=      -11.46
  -0.00007499   0.00000000   0.00000000          -11.03        0.00        0.00
   0.00000000  -0.00007499   0.00000000            0.00      -11.03        0.00
   0.00000000   0.00000000  -0.00008370            0.00        0.00      -12.31

     Energy error            =      5.5E-04 Ry
     Gradient error          =      8.8E-03 Ry/Bohr

     number of scf cycles    =   8
     number of bfgs steps    =   7

     energy             old  =    -333.1816922110 Ry
     energy             new  =    -333.1822427605 Ry

     CASE: energy            _new < energy            _old

     new trust radius        =       0.0951190679 bohr
     new conv_thr            =       0.0000000055 Ry


ATOMIC_POSITIONS (angstrom)
Pb               0.0000000000        0.0000000000        0.0000000000    0   0   0
Ti               1.9375000000        1.9375000000        1.7825000000    0   0   0
O                0.0000000000        1.9375000000        1.7947490873
O                1.9375000000        0.0000000000        1.7947490873
O                1.9375000000        1.9375000000       -0.1458234550


     Message from routine punch:
     Nothing written, as per user request (disk_io='none')
     NEW-OLD atomic charge density approx. for the potential

     total cpu time spent up to now is       47.3 secs

     Self-consistent Calculation

     iteration #  1     ecut=    30.00 Ry     beta= 0.70
     Davidson diagonalization with overlap
     ethr =  1.00E-06,  avg # of iterations =  9.7

     total cpu time spent up to now is       48.0 secs

     total energy              =    -333.18278246 Ry
     estimated scf accuracy    <       0.00172751 Ry

     iteration #  2     ecut=    30.00 Ry     beta= 0.70
     Davidson diagonalization with overlap
     ethr =  3.93E-06,  avg # of iterations =  2.2

     total cpu time spent up to now is       48.4 secs

     total energy              =    -333.18301392 Ry
     estimated scf accuracy    <       0.00011447 Ry

     iteration #  3     ecut=    30.00 Ry     beta= 0.70
     Davidson diagonalization with overlap
     ethr =  2.60E-07,  avg # of iterations =  4.0

     total cpu time spent up to now is       48.8 secs

     total energy              =    -333.18303387 Ry
     estimated scf accuracy    <       0.00003685 Ry

     iteration #  4     ecut=    30.00 Ry     beta= 0.70
     Davidson diagonalization with overlap
     ethr =  8.37E-08,  avg # of iterations =  4.8

     total cpu time spent up to now is       49.3 secs

     total energy              =    -333.18304040 Ry
     estimated scf accuracy    <       0.00001868 Ry

     iteration #  5     ecut=    30.00 Ry     beta= 0.70
     Davidson diagonalization with overlap
     ethr =  4.25E-08,  avg # of iterations =  4.3

     total cpu time spent up to now is       49.7 secs

     total energy              =    -333.18304467 Ry
     estimated scf accuracy    <       0.00000154 Ry

     iteration #  6     ecut=    30.00 Ry     beta= 0.70
     Davidson diagonalization with overlap
     ethr =  3.50E-09,  avg # of iterations =  4.8

     total cpu time spent up to now is       50.2 secs

     total energy              =    -333.18304487 Ry
     estimated scf accuracy    <       0.00000085 Ry

     iteration #  7     ecut=    30.00 Ry     beta= 0.70
     Davidson diagonalization with overlap
     ethr =  1.94E-09,  avg # of iterations =  4.5

     total cpu time spent up to now is       50.6 secs

     total energy              =    -333.18304500 Ry
     estimated scf accuracy    <       0.00000003 Ry

     iteration #  8     ecut=    30.00 Ry     beta= 0.70
     Davidson diagonalization with overlap
     ethr =  7.13E-11,  avg # of iterations =  5.8

     total cpu time spent up to now is       51.1 secs

     total energy              =    -333.18304501 Ry
     estimated scf accuracy    <       0.00000001 Ry

     iteration #  9     ecut=    30.00 Ry     beta= 0.70
     Davidson diagonalization with overlap
     ethr =  3.33E-11,  avg # of iterations =  3.8

     total cpu time spent up to now is       51.5 secs

     End of self-consistent calculation

          k = 0.1250 0.1250 0.1250 (  1090 PWs)   bands (ev):

   -44.6767 -21.2887 -21.2875 -21.2785  -6.3583  -5.3087  -5.2504  -3.9364
    -3.9351  -3.9195  -3.7578  -3.7334   4.6686   7.2947   7.3054   8.1046
     9.1320   9.1362   9.8877   9.9504   9.9730  10.1123

          k = 0.1250 0.1250 0.3750 (  1095 PWs)   bands (ev):

   -44.6755 -21.3362 -21.2864 -21.2854  -5.9691  -5.1978  -5.0611  -3.9894
    -3.9284  -3.9166  -3.8301  -3.7240   3.9561   6.8529   7.3469   7.8151
     8.4263   8.7574   9.3622   9.9482  10.0744  10.8820

          k = 0.1250 0.3750 0.3750 (  1087 PWs)   bands (ev):

   -44.6742 -21.3426 -21.3325 -21.2838  -5.7506  -5.0424  -4.9351  -3.9671
    -3.9249  -3.8683  -3.7757  -3.6171   3.5744   6.7854   6.8386   7.1619
     7.4820   8.6528   9.4085   9.5003  10.0870  10.7323

          k = 0.3750 0.3750 0.3750 (  1082 PWs)   bands (ev):

   -44.6729 -21.3402 -21.3399 -21.3300  -5.3287  -5.1746  -5.1222  -3.8792
    -3.8782  -3.5938  -3.5220  -3.5136   4.1336   5.9181   5.9599   6.7054
     7.0024   7.0267   8.0756  10.6496  10.6919  10.7619

          k = 0.3750-0.1250 0.1250 (  1095 PWs)   bands (ev):

   -44.6755 -21.3462 -21.2859 -21.2763  -5.9411  -5.1674  -5.1220  -3.9966
    -3.9287  -3.9153  -3.8255  -3.7119   3.9280   6.8099   7.3267   7.8482
     8.4422   8.7341   9.3876   9.9315  10.1131  10.8945

          k = 0.3750-0.3750 0.1250 (  1087 PWs)   bands (ev):

   -44.6742 -21.3430 -21.3421 -21.2742  -5.6905  -5.0591  -5.0003  -3.9683
    -3.9149  -3.8468  -3.7586  -3.6347   3.5208   6.7860   6.8201   7.1823
     7.4915   8.6928   9.4574   9.4923  10.0874  10.6908

     highest occupied level (ev):    10.8945

!    total energy              =    -333.18304502 Ry
     estimated scf accuracy    <          3.9E-10 Ry

     The total energy is the sum of the following terms:
     one-electron contribution =     -77.07007569 Ry
     hartree contribution      =      66.51473144 Ry
     xc contribution           =     -49.65534916 Ry
     ewald contribution        =    -272.97235160 Ry

     convergence has been achieved in   9 iterations

     Forces acting on atoms (cartesian axes, Ry/au):

     atom    1 type  2   force =     0.00000000    0.00000000   -0.01040811
     atom    2 type  3   force =     0.00000000    0.00000000    0.01725977
     atom    3 type  1   force =     0.00000000    0.00000000   -0.00617730
     atom    4 type  1   force =     0.00000000    0.00000000   -0.00617730
     atom    5 type  1   force =     0.00000000    0.00000000    0.00550294

     Total force =     0.010325     Total SCF correction =     0.000008


     Computing stress (Cartesian axis) and pressure

          total   stress  (Ry/bohr**3)                   (kbar)     P=       -9.96
  -0.00005883   0.00000000   0.00000000           -8.65        0.00        0.00
   0.00000000  -0.00005883   0.00000000            0.00       -8.65        0.00
   0.00000000   0.00000000  -0.00008555            0.00        0.00      -12.59

     Energy error            =      8.0E-04 Ry
     Gradient error          =      6.2E-03 Ry/Bohr

     number of scf cycles    =   9
     number of bfgs steps    =   8

     energy             old  =    -333.1822427605 Ry
     energy             new  =    -333.1830450160 Ry

     CASE: energy            _new < energy            _old


     WARNING: bfgs curvature condition failed, Theta= 0.705
     new trust radius        =       0.1426786018 bohr
     new conv_thr            =       0.0000000062 Ry


ATOMIC_POSITIONS (angstrom)
Pb               0.0000000000        0.0000000000        0.0000000000    0   0   0
Ti               1.9375000000        1.9375000000        1.7825000000    0   0   0
O                0.0000000000        1.9375000000        1.7192468228
O                1.9375000000        0.0000000000        1.7192468228
O                1.9375000000        1.9375000000       -0.1895346495


     Message from routine punch:
     Nothing written, as per user request (disk_io='none')
     NEW-OLD atomic charge density approx. for the potential

     total cpu time spent up to now is       53.0 secs

     Self-consistent Calculation

     iteration #  1     ecut=    30.00 Ry     beta= 0.70
     Davidson diagonalization with overlap
     ethr =  1.00E-06,  avg # of iterations = 10.7

     total cpu time spent up to now is       53.6 secs

     total energy              =    -333.18372391 Ry
     estimated scf accuracy    <       0.00355313 Ry

     iteration #  2     ecut=    30.00 Ry     beta= 0.70
     Davidson diagonalization with overlap
     ethr =  8.08E-06,  avg # of iterations =  2.2

     total cpu time spent up to now is       54.1 secs

     total energy              =    -333.18421532 Ry
     estimated scf accuracy    <       0.00020985 Ry

     iteration #  3     ecut=    30.00 Ry     beta= 0.70
     Davidson diagonalization with overlap
     ethr =  4.77E-07,  avg # of iterations =  3.5

     total cpu time spent up to now is       54.6 secs

     total energy              =    -333.18426082 Ry
     estimated scf accuracy    <       0.00004186 Ry

     iteration #  4     ecut=    30.00 Ry     beta= 0.70
     Davidson diagonalization with overlap
     ethr =  9.51E-08,  avg # of iterations =  4.3

     total cpu time spent up to now is       55.2 secs

     total energy              =    -333.18426966 Ry
     estimated scf accuracy    <       0.00000945 Ry

     iteration #  5     ecut=    30.00 Ry     beta= 0.70
     Davidson diagonalization with overlap
     ethr =  2.15E-08,  avg # of iterations =  4.5

     total cpu time spent up to now is       55.6 secs

     total energy              =    -333.18427216 Ry
     estimated scf accuracy    <       0.00000232 Ry

     iteration #  6     ecut=    30.00 Ry     beta= 0.70
     Davidson diagonalization with overlap
     ethr =  5.27E-09,  avg # of iterations =  4.2

     total cpu time spent up to now is       56.0 secs

     total energy              =    -333.18427258 Ry
     estimated scf accuracy    <       0.00000004 Ry

     iteration #  7     ecut=    30.00 Ry     beta= 0.70
     Davidson diagonalization with overlap
     ethr =  8.10E-11,  avg # of iterations =  6.3

     total cpu time spent up to now is       56.6 secs

     total energy              =    -333.18427263 Ry
     estimated scf accuracy    <       0.00000004 Ry

     iteration #  8     ecut=    30.00 Ry     beta= 0.70
     Davidson diagonalization with overlap
     ethr =  8.10E-11,  avg # of iterations =  3.3

     total cpu time spent up to now is       57.0 secs

     total energy              =    -333.18427263 Ry
     estimated scf accuracy    <          7.1E-09 Ry

     iteration #  9     ecut=    30.00 Ry     beta= 0.70
     Davidson diagonalization with overlap
     ethr =  1.61E-11,  avg # of iterations =  4.8

     total cpu time spent up to now is       57.4 secs

     End of self-consistent calculation

          k = 0.1250 0.1250 0.1250 (  1090 PWs)   bands (ev):

   -44.6917 -21.3051 -21.3039 -21.2920  -6.3965  -5.3645  -5.2448  -3.9076
    -3.9066  -3.8858  -3.7336  -3.6789   4.6801   7.2549   7.3009   8.0954
     9.1044   9.1268   9.8376   9.8742   9.9355  10.1936

          k = 0.1250 0.1250 0.3750 (  1095 PWs)   bands (ev):

   -44.6905 -21.3496 -21.3027 -21.3018  -6.0267  -5.2625  -5.0407  -3.9542
    -3.8961  -3.8839  -3.7734  -3.6971   3.9789   6.8589   7.2902   7.7605
     8.4485   8.7463   9.3318   9.9163  10.0250  10.8950

          k = 0.1250 0.3750 0.3750 (  1087 PWs)   bands (ev):

   -44.6892 -21.3590 -21.3459 -21.3001  -5.8011  -5.1059  -4.9278  -3.9347
    -3.8926  -3.8343  -3.7365  -3.5693   3.5963   6.7072   6.8693   7.1284
     7.4635   8.6189   9.3702   9.4908  10.1198  10.7175

          k = 0.3750 0.3750 0.3750 (  1082 PWs)   bands (ev):

   -44.6880 -21.3566 -21.3562 -21.3434  -5.3740  -5.2296  -5.1121  -3.8464
    -3.8462  -3.5698  -3.4853  -3.4717   4.0944   5.8942   5.9636   6.6701
     6.9957   7.0314   8.1572  10.5933  10.6798  10.7510

          k = 0.3750-0.1250 0.1250 (  1095 PWs)   bands (ev):

   -44.6905 -21.3625 -21.3023 -21.2899  -5.9742  -5.2143  -5.1538  -3.9661
    -3.8986  -3.8804  -3.7716  -3.6678   3.9319   6.7807   7.3035   7.8318
     8.4084   8.7300   9.3763   9.9000  10.0764  10.9180

          k = 0.3750-0.3750 0.1250 (  1087 PWs)   bands (ev):

   -44.6892 -21.3593 -21.3584 -21.2878  -5.6868  -5.1209  -5.0774  -3.9373
    -3.8754  -3.7911  -3.6985  -3.6030   3.4857   6.7511   6.7935   7.1815
     7.5088   8.7025   9.4538   9.4830  10.1196  10.6355

     highest occupied level (ev):    10.9180

!    total energy              =    -333.18427263 Ry
     estimated scf accuracy    <          3.7E-09 Ry

     The total energy is the sum of the following terms:
     one-electron contribution =     -77.60116906 Ry
     hartree contribution      =      66.77754668 Ry
     xc contribution           =     -49.66498311 Ry
     ewald contribution        =    -272.69566714 Ry

     convergence has been achieved in   9 iterations

     Forces acting on atoms (cartesian axes, Ry/au):

     atom    1 type  2   force =     0.00000000    0.00000000   -0.00805983
     atom    2 type  3   force =     0.00000000    0.00000000    0.01768428
     atom    3 type  1   force =     0.00000000    0.00000000   -0.00256331
     atom    4 type  1   force =     0.00000000    0.00000000   -0.00256331
     atom    5 type  1   force =     0.00000000    0.00000000   -0.00449783

     Total force =     0.005777     Total SCF correction =     0.000010


     Computing stress (Cartesian axis) and pressure

          total   stress  (Ry/bohr**3)                   (kbar)     P=       -5.53
  -0.00003576   0.00000000   0.00000000           -5.26        0.00        0.00
   0.00000000  -0.00003576   0.00000000            0.00       -5.26        0.00
   0.00000000   0.00000000  -0.00004131            0.00        0.00       -6.08

     Energy error            =      1.2E-03 Ry
     Gradient error          =      4.5E-03 Ry/Bohr

     number of scf cycles    =  10
     number of bfgs steps    =   9

     energy             old  =    -333.1830450160 Ry
     energy             new  =    -333.1842726276 Ry

     CASE: energy            _new < energy            _old


     WARNING: info= 15 for Hessian
     new trust radius        =       0.2140179027 bohr
     new conv_thr            =       0.0000000045 Ry


ATOMIC_POSITIONS (angstrom)
Pb               0.0000000000        0.0000000000        0.0000000000    0   0   0
Ti               1.9375000000        1.9375000000        1.7825000000    0   0   0
O                0.0000000000        1.9375000000        1.6059934259
O                1.9375000000        0.0000000000        1.6059934259
O                1.9375000000        1.9375000000       -0.2431251128


     Message from routine punch:
     Nothing written, as per user request (disk_io='none')
     NEW-OLD atomic charge density approx. for the potential

     total cpu time spent up to now is       59.1 secs

     Self-consistent Calculation

     iteration #  1     ecut=    30.00 Ry     beta= 0.70
     Davidson diagonalization with overlap
     ethr =  1.00E-06,  avg # of iterations = 11.2

     total cpu time spent up to now is       59.9 secs

     total energy              =    -333.18346323 Ry
     estimated scf accuracy    <       0.00780530 Ry

     iteration #  2     ecut=    30.00 Ry     beta= 0.70
     Davidson diagonalization with overlap
     ethr =  1.77E-05,  avg # of iterations =  2.2

     total cpu time spent up to now is       60.4 secs

     total energy              =    -333.18461388 Ry
     estimated scf accuracy    <       0.00062244 Ry

     iteration #  3     ecut=    30.00 Ry     beta= 0.70
     Davidson diagonalization with overlap
     ethr =  1.41E-06,  avg # of iterations =  3.5

     total cpu time spent up to now is       60.9 secs

     total energy              =    -333.18474529 Ry
     estimated scf accuracy    <       0.00020293 Ry

     iteration #  4     ecut=    30.00 Ry     beta= 0.70
     Davidson diagonalization with overlap
     ethr =  4.61E-07,  avg # of iterations =  4.3

     total cpu time spent up to now is       61.4 secs

     total energy              =    -333.18479463 Ry
     estimated scf accuracy    <       0.00003801 Ry

     iteration #  5     ecut=    30.00 Ry     beta= 0.70
     Davidson diagonalization with overlap
     ethr =  8.64E-08,  avg # of iterations =  4.0

     total cpu time spent up to now is       62.0 secs

     total energy              =    -333.18480272 Ry
     estimated scf accuracy    <       0.00000254 Ry

     iteration #  6     ecut=    30.00 Ry     beta= 0.70
     Davidson diagonalization with overlap
     ethr =  5.77E-09,  avg # of iterations =  5.7

     total cpu time spent up to now is       62.5 secs

     total energy              =    -333.18480347 Ry
     estimated scf accuracy    <       0.00000353 Ry

     iteration #  7     ecut=    30.00 Ry     beta= 0.70
     Davidson diagonalization with overlap
     ethr =  5.77E-09,  avg # of iterations =  4.5

     total cpu time spent up to now is       63.0 secs

     total energy              =    -333.18480396 Ry
     estimated scf accuracy    <       0.00000014 Ry

     iteration #  8     ecut=    30.00 Ry     beta= 0.70
     Davidson diagonalization with overlap
     ethr =  3.15E-10,  avg # of iterations =  5.2

     total cpu time spent up to now is       63.6 secs

     total energy              =    -333.18480403 Ry
     estimated scf accuracy    <       0.00000004 Ry

     iteration #  9     ecut=    30.00 Ry     beta= 0.70
     Davidson diagonalization with overlap
     ethr =  7.99E-11,  avg # of iterations =  4.7

     total cpu time spent up to now is       64.1 secs

     End of self-consistent calculation

          k = 0.1250 0.1250 0.1250 (  1090 PWs)   bands (ev):

   -44.7007 -21.3164 -21.3114 -21.3111  -6.4802  -5.4540  -5.2356  -3.8468
    -3.8449  -3.8119  -3.6795  -3.5552   4.7028   7.1427   7.2842   8.0512
     9.0440   9.0663   9.6894   9.7432   9.8968  10.2851

          k = 0.1250 0.1250 0.3750 (  1095 PWs)   bands (ev):

   -44.6994 -21.3726 -21.3102 -21.3093  -6.1317  -5.3655  -5.0174  -3.8852
    -3.8294  -3.8104  -3.6436  -3.6394   4.0114   6.8411   7.0854   7.6385
     8.5595   8.6605   9.3285   9.8180   9.9487  10.9639

[...]

          k = 0.1250 0.3750 0.3750 (  1087 PWs)   bands (ev):

   -44.6827 -21.3626 -21.3502 -21.2924  -5.8831  -5.2273  -4.9361  -3.8736
    -3.8267  -3.7695  -3.6559  -3.4658   3.6348   6.5696   6.9024   7.0971
     7.4075   8.5923   9.3091   9.4503  10.2004  10.6600

          k = 0.3750 0.3750 0.3750 (  1082 PWs)   bands (ev):

   -44.6814 -21.3601 -21.3478 -21.3477  -5.4701  -5.3311  -5.1098  -3.7830
    -3.7805  -3.5261  -3.4125  -3.3805   4.0125   5.8678   5.9578   6.5899
     7.0826   7.1015   8.3253  10.5019  10.6158  10.6986

          k = 0.3750-0.1250 0.1250 (  1095 PWs)   bands (ev):

   -44.6839 -21.3541 -21.3063 -21.2944  -6.0490  -5.3159  -5.1952  -3.9032
    -3.8395  -3.8124  -3.6724  -3.5689   3.9359   6.7604   7.2763   7.7871
     8.3367   8.7634   9.3191   9.8187   9.9505  10.9547

          k = 0.3750-0.3750 0.1250 (  1087 PWs)   bands (ev):

   -44.6827 -21.3510 -21.3500 -21.3038  -5.7173  -5.2231  -5.2123  -3.8724
    -3.8030  -3.6874  -3.5763  -3.5423   3.4191   6.7023   6.7873   7.1924
     7.5634   8.7260   9.4650   9.4767  10.1738  10.5435

     highest occupied level (ev):    10.9603

!    total energy              =    -333.18526295 Ry
     estimated scf accuracy    <          1.8E-09 Ry

     The total energy is the sum of the following terms:
     one-electron contribution =     -78.61577897 Ry
     hartree contribution      =      67.29187353 Ry
     xc contribution           =     -49.68797486 Ry
     ewald contribution        =    -272.17338265 Ry

     convergence has been achieved in   9 iterations

     Forces acting on atoms (cartesian axes, Ry/au):

     atom    1 type  2   force =     0.00000000    0.00000000   -0.00809818
     atom    2 type  3   force =     0.00000000    0.00000000    0.01348172
     atom    3 type  1   force =     0.00000000    0.00000000    0.00427439
     atom    4 type  1   force =     0.00000000    0.00000000    0.00427439
     atom    5 type  1   force =     0.00000000    0.00000000   -0.01393231

     Total force =     0.015187     Total SCF correction =     0.000014


     Computing stress (Cartesian axis) and pressure

          total   stress  (Ry/bohr**3)                   (kbar)     P=        5.66
  -0.00000144   0.00000000   0.00000000           -0.21        0.00        0.00
   0.00000000  -0.00000144   0.00000000            0.00       -0.21        0.00
   0.00000000   0.00000000   0.00011828            0.00        0.00       17.40

     Energy error            =      4.6E-04 Ry
     Gradient error          =      1.4E-02 Ry/Bohr

     number of scf cycles    =  12
     number of bfgs steps    =  11

     energy             old  =    -333.1848040364 Ry
     energy             new  =    -333.1852629475 Ry

     CASE: energy            _new < energy            _old

     new trust radius        =       0.0236240176 bohr
     new conv_thr            =       0.0000000046 Ry


ATOMIC_POSITIONS (angstrom)
Pb               0.0000000000        0.0000000000        0.0000000000    0   0   0
Ti               1.9375000000        1.9375000000        1.7825000000    0   0   0
O                0.0000000000        1.9375000000        1.6135550815
O                1.9375000000        0.0000000000        1.6135550815
O                1.9375000000        1.9375000000       -0.2669912152


     Message from routine punch:
     Nothing written, as per user request (disk_io='none')
     NEW-OLD atomic charge density approx. for the potential

     total cpu time spent up to now is       71.4 secs

     Self-consistent Calculation

     iteration #  1     ecut=    30.00 Ry     beta= 0.70
     Davidson diagonalization with overlap
     ethr =  1.00E-06,  avg # of iterations =  5.0

     total cpu time spent up to now is       71.9 secs

     total energy              =    -333.18548775 Ry
     estimated scf accuracy    <       0.00013000 Ry

     iteration #  2     ecut=    30.00 Ry     beta= 0.70
     Davidson diagonalization with overlap
     ethr =  2.95E-07,  avg # of iterations =  4.5

     total cpu time spent up to now is       72.4 secs

     total energy              =    -333.18550532 Ry
     estimated scf accuracy    <       0.00008845 Ry

     iteration #  3     ecut=    30.00 Ry     beta= 0.70
     Davidson diagonalization with overlap
     ethr =  2.01E-07,  avg # of iterations =  4.5

     total cpu time spent up to now is       72.9 secs

     total energy              =    -333.18552585 Ry
     estimated scf accuracy    <       0.00002460 Ry

     iteration #  4     ecut=    30.00 Ry     beta= 0.70
     Davidson diagonalization with overlap
     ethr =  5.59E-08,  avg # of iterations =  3.7

     total cpu time spent up to now is       73.5 secs

     total energy              =    -333.18552961 Ry
     estimated scf accuracy    <       0.00000070 Ry

     iteration #  5     ecut=    30.00 Ry     beta= 0.70
     Davidson diagonalization with overlap
     ethr =  1.58E-09,  avg # of iterations =  6.0

     total cpu time spent up to now is       74.1 secs

     total energy              =    -333.18553049 Ry
     estimated scf accuracy    <       0.00000161 Ry

     iteration #  6     ecut=    30.00 Ry     beta= 0.70
     Davidson diagonalization with overlap
     ethr =  1.58E-09,  avg # of iterations =  3.0

     total cpu time spent up to now is       74.5 secs

     total energy              =    -333.18553035 Ry
     estimated scf accuracy    <       0.00000072 Ry

     iteration #  7     ecut=    30.00 Ry     beta= 0.70
     Davidson diagonalization with overlap
     ethr =  1.58E-09,  avg # of iterations =  4.3

     total cpu time spent up to now is       74.9 secs

     total energy              =    -333.18553049 Ry
     estimated scf accuracy    <          5.8E-09 Ry

     iteration #  8     ecut=    30.00 Ry     beta= 0.70
     Davidson diagonalization with overlap
     ethr =  1.32E-11,  avg # of iterations =  6.8

     total cpu time spent up to now is       75.4 secs

     total energy              =    -333.18553049 Ry
     estimated scf accuracy    <       0.00000005 Ry

     iteration #  9     ecut=    30.00 Ry     beta= 0.70
     Davidson diagonalization with overlap
     ethr =  1.32E-11,  avg # of iterations =  6.0

     total cpu time spent up to now is       75.9 secs

     End of self-consistent calculation

          k = 0.1250 0.1250 0.1250 (  1090 PWs)   bands (ev):

   -44.6663 -21.3009 -21.2785 -21.2776  -6.4680  -5.4431  -5.2476  -3.8574
    -3.8549  -3.8245  -3.6914  -3.5692   4.6938   7.1638   7.2859   8.0764
     9.0379   9.0437   9.6451   9.7420   9.8991  10.2621

          k = 0.1250 0.1250 0.3750 (  1095 PWs)   bands (ev):

   -44.6651 -21.3586 -21.2764 -21.2755  -6.1143  -5.3533  -5.0327  -3.8960
    -3.8394  -3.8231  -3.6580  -3.6529   3.9913   6.8448   7.1051   7.6660
     8.5313   8.6479   9.3089   9.8181   9.9599  10.9569

          k = 0.1250 0.3750 0.3750 (  1087 PWs)   bands (ev):

   -44.6638 -21.3550 -21.3319 -21.2738  -5.8760  -5.2195  -4.9433  -3.8794
    -3.8328  -3.7764  -3.6624  -3.4715   3.6302   6.5633   6.9024   7.1038
     7.4114   8.5963   9.3126   9.4329  10.1920  10.6542

          k = 0.3750 0.3750 0.3750 (  1082 PWs)   bands (ev):

   -44.6625 -21.3524 -21.3294 -21.3294  -5.4629  -5.3245  -5.1148  -3.7895
    -3.7858  -3.5345  -3.4190  -3.3855   4.0146   5.8654   5.9541   6.5947
     7.0830   7.0984   8.3163  10.5086  10.6047  10.6896

          k = 0.3750-0.1250 0.1250 (  1095 PWs)   bands (ev):

   -44.6651 -21.3357 -21.2984 -21.2759  -6.0435  -5.3097  -5.1994  -3.9087
    -3.8449  -3.8197  -3.6784  -3.5757   3.9352   6.7628   7.2739   7.7952
     8.3353   8.7603   9.3007   9.8165   9.9415  10.9490

          k = 0.3750-0.3750 0.1250 (  1087 PWs)   bands (ev):

   -44.6638 -21.3327 -21.3316 -21.2960  -5.7180  -5.2194  -5.2041  -3.8777
    -3.8094  -3.6945  -3.5833  -3.5509   3.4218   6.7064   6.7946   7.1846
     7.5542   8.7230   9.4539   9.4679  10.1667  10.5488

     highest occupied level (ev):    10.9569

!    total energy              =    -333.18553050 Ry
     estimated scf accuracy    <          8.4E-11 Ry

     The total energy is the sum of the following terms:
     one-electron contribution =     -78.64183176 Ry
     hartree contribution      =      67.30808468 Ry
     xc contribution           =     -49.69138426 Ry
     ewald contribution        =    -272.16039916 Ry

     convergence has been achieved in   9 iterations

     Forces acting on atoms (cartesian axes, Ry/au):

     atom    1 type  2   force =     0.00000000    0.00000000   -0.00807891
     atom    2 type  3   force =     0.00000000    0.00000000    0.01083039
     atom    3 type  1   force =     0.00000000    0.00000000    0.00128877
     atom    4 type  1   force =     0.00000000    0.00000000    0.00128877
     atom    5 type  1   force =     0.00000000    0.00000000   -0.00532902

     Total force =     0.005632     Total SCF correction =     0.000001


     Computing stress (Cartesian axis) and pressure

          total   stress  (Ry/bohr**3)                   (kbar)     P=        7.88
   0.00000344   0.00000000   0.00000000            0.51        0.00        0.00
   0.00000000   0.00000344   0.00000000            0.00        0.51        0.00
   0.00000000   0.00000000   0.00015380            0.00        0.00       22.63

     Energy error            =      2.7E-04 Ry
     Gradient error          =      5.3E-03 Ry/Bohr

     number of scf cycles    =  13
     number of bfgs steps    =  12

     energy             old  =    -333.1852629475 Ry
     energy             new  =    -333.1855305001 Ry

     CASE: energy            _new < energy            _old

     new trust radius        =       0.0141682359 bohr
     new conv_thr            =       0.0000000027 Ry


ATOMIC_POSITIONS (angstrom)
Pb               0.0000000000        0.0000000000        0.0000000000    0   0   0
Ti               1.9375000000        1.9375000000        1.7825000000    0   0   0
O                0.0000000000        1.9375000000        1.6155651741
O                1.9375000000        0.0000000000        1.6155651741
O                1.9375000000        1.9375000000       -0.2744887228


     Message from routine punch:
     Nothing written, as per user request (disk_io='none')
     NEW-OLD atomic charge density approx. for the potential

     total cpu time spent up to now is       77.3 secs

     Self-consistent Calculation

     iteration #  1     ecut=    30.00 Ry     beta= 0.70
     Davidson diagonalization with overlap
     ethr =  1.00E-06,  avg # of iterations =  4.0

     Threshold (ethr) on eigenvalues was too large:
     Diagonalizing with lowered threshold

     Davidson diagonalization with overlap
     ethr =  9.92E-08,  avg # of iterations =  2.7

     total cpu time spent up to now is       78.1 secs

     total energy              =    -333.18555428 Ry
     estimated scf accuracy    <       0.00004862 Ry

     iteration #  2     ecut=    30.00 Ry     beta= 0.70
     Davidson diagonalization with overlap
     ethr =  1.11E-07,  avg # of iterations =  5.0

     total cpu time spent up to now is       78.5 secs

     total energy              =    -333.18555742 Ry
     estimated scf accuracy    <       0.00004734 Ry

     iteration #  3     ecut=    30.00 Ry     beta= 0.70
     Davidson diagonalization with overlap
     ethr =  1.08E-07,  avg # of iterations =  4.7

     total cpu time spent up to now is       79.0 secs

     total energy              =    -333.18556879 Ry
     estimated scf accuracy    <       0.00000946 Ry

     iteration #  4     ecut=    30.00 Ry     beta= 0.70
     Davidson diagonalization with overlap
     ethr =  2.15E-08,  avg # of iterations =  3.0

     total cpu time spent up to now is       79.4 secs

     total energy              =    -333.18556993 Ry
     estimated scf accuracy    <       0.00000073 Ry

     iteration #  5     ecut=    30.00 Ry     beta= 0.70
     Davidson diagonalization with overlap
     ethr =  1.65E-09,  avg # of iterations =  5.7

     total cpu time spent up to now is       79.9 secs

     total energy              =    -333.18557050 Ry
     estimated scf accuracy    <       0.00000071 Ry

     iteration #  6     ecut=    30.00 Ry     beta= 0.70
     Davidson diagonalization with overlap
     ethr =  1.62E-09,  avg # of iterations =  1.7

     total cpu time spent up to now is       80.2 secs

     total energy              =    -333.18557042 Ry
     estimated scf accuracy    <       0.00000036 Ry

     iteration #  7     ecut=    30.00 Ry     beta= 0.70
     Davidson diagonalization with overlap
     ethr =  8.18E-10,  avg # of iterations =  3.8

     total cpu time spent up to now is       80.6 secs

     total energy              =    -333.18557050 Ry
     estimated scf accuracy    <       0.00000001 Ry

     iteration #  8     ecut=    30.00 Ry     beta= 0.70
     Davidson diagonalization with overlap
     ethr =  2.56E-11,  avg # of iterations =  5.5

     total cpu time spent up to now is       81.1 secs

     total energy              =    -333.18557051 Ry
     estimated scf accuracy    <          7.1E-09 Ry

     iteration #  9     ecut=    30.00 Ry     beta= 0.70
     Davidson diagonalization with overlap
     ethr =  1.62E-11,  avg # of iterations =  2.0

     total cpu time spent up to now is       81.4 secs

     total energy              =    -333.18557051 Ry
     estimated scf accuracy    <          5.0E-09 Ry

     iteration # 10     ecut=    30.00 Ry     beta= 0.70
     Davidson diagonalization with overlap
     ethr =  1.13E-11,  avg # of iterations =  2.8

     total cpu time spent up to now is       81.8 secs

     End of self-consistent calculation

          k = 0.1250 0.1250 0.1250 (  1090 PWs)   bands (ev):

   -44.6546 -21.2965 -21.2669 -21.2660  -6.4643  -5.4397  -5.2512  -3.8607
    -3.8580  -3.8284  -3.6952  -3.5733   4.6909   7.1695   7.2864   8.0843
     9.0282   9.0425   9.6311   9.7418   9.9004  10.2550

          k = 0.1250 0.1250 0.3750 (  1095 PWs)   bands (ev):

   -44.6534 -21.3543 -21.2648 -21.2639  -6.1089  -5.3494  -5.0373  -3.8994
    -3.8426  -3.8271  -3.6621  -3.6572   3.9847   6.8458   7.1097   7.6742
     8.5233   8.6423   9.3040   9.8180   9.9636  10.9554

          k = 0.1250 0.3750 0.3750 (  1087 PWs)   bands (ev):

   -44.6521 -21.3507 -21.3204 -21.2622  -5.8718  -5.2149  -4.9476  -3.8828
    -3.8364  -3.7804  -3.6661  -3.4746   3.6274   6.5592   6.9024   7.1076
     7.4135   8.5987   9.3142   9.4230  10.1869  10.6510

          k = 0.3750 0.3750 0.3750 (  1082 PWs)   bands (ev):

   -44.6508 -21.3481 -21.3180 -21.3179  -5.4587  -5.3207  -5.1178  -3.7933
    -3.7890  -3.5395  -3.4227  -3.3883   4.0155   5.8639   5.9515   6.5977
     7.0840   7.0966   8.3112  10.5125  10.5980  10.6842

          k = 0.3750-0.1250 0.1250 (  1095 PWs)   bands (ev):

   -44.6534 -21.3242 -21.2941 -21.2643  -6.0404  -5.3062  -5.2018  -3.9119
    -3.8481  -3.8240  -3.6817  -3.5794   3.9347   6.7645   7.2723   7.7996
     8.3344   8.7585   9.2894   9.8155   9.9361  10.9455

          k = 0.3750-0.3750 0.1250 (  1087 PWs)   bands (ev):

   -44.6521 -21.3212 -21.3201 -21.2917  -5.7186  -5.2172  -5.1994  -3.8807
    -3.8131  -3.6985  -3.5871  -3.5559   3.4232   6.7090   6.7990   7.1797
     7.5485   8.7212   9.4480   9.4628  10.1630  10.5520

     highest occupied level (ev):    10.9554

!    total energy              =    -333.18557051 Ry
     estimated scf accuracy    <          1.2E-09 Ry

     The total energy is the sum of the following terms:
     one-electron contribution =     -78.66846182 Ry
     hartree contribution      =      67.32367789 Ry
     xc contribution           =     -49.69369784 Ry
     ewald contribution        =    -272.14708874 Ry

     convergence has been achieved in  10 iterations

     Forces acting on atoms (cartesian axes, Ry/au):

     atom    1 type  2   force =     0.00000000    0.00000000   -0.00804077
     atom    2 type  3   force =     0.00000000    0.00000000    0.00900392
     atom    3 type  1   force =     0.00000000    0.00000000   -0.00044960
     atom    4 type  1   force =     0.00000000    0.00000000   -0.00044960
     atom    5 type  1   force =     0.00000000    0.00000000   -0.00006394

     Total force =     0.000639     Total SCF correction =     0.000012


     Computing stress (Cartesian axis) and pressure

          total   stress  (Ry/bohr**3)                   (kbar)     P=        9.47
   0.00000753   0.00000000   0.00000000            1.11        0.00        0.00
   0.00000000   0.00000753   0.00000000            0.00        1.11        0.00
   0.00000000   0.00000000   0.00017805            0.00        0.00       26.19

     Energy error            =      4.0E-05 Ry
     Gradient error          =      4.5E-04 Ry/Bohr

     bfgs converged in  14 scf cycles and  13 bfgs steps
     (criteria: energy <  1.0E-04 Ry, force <  1.0E-03 Ry/Bohr)

     End of BFGS Geometry Optimization

     Final energy             =    -333.1855705059 Ry

     File /home/bond/Work/Lab4/Problem2/PbTiO3_a_3.875_ecut_30_nk_4_displ_-0.04/pwscf.bfgs deleted, as requested
Begin final coordinates

ATOMIC_POSITIONS (angstrom)
Pb               0.0000000000        0.0000000000        0.0000000000    0   0   0
Ti               1.9375000000        1.9375000000        1.7825000000    0   0   0
O                0.0000000000        1.9375000000        1.6155651741
O                1.9375000000        0.0000000000        1.6155651741
O                1.9375000000        1.9375000000       -0.2744887228
End final coordinates


     Message from routine punch:
     Nothing written, as per user request (disk_io='none')

     init_run     :      0.97s CPU      1.03s WALL (       1 calls)
     electrons    :     52.73s CPU     60.48s WALL (      14 calls)
     update_pot   :      0.08s CPU      0.09s WALL (      13 calls)
     forces       :      1.95s CPU      2.25s WALL (      14 calls)
     stress       :     16.38s CPU     17.35s WALL (      14 calls)

     Called by init_run:
     wfcinit      :      0.09s CPU      0.09s WALL (       1 calls)
     potinit      :      0.08s CPU      0.08s WALL (       1 calls)
     hinit0       :      0.66s CPU      0.67s WALL (       1 calls)

     Called by electrons:
     c_bands      :     24.06s CPU     25.54s WALL (     132 calls)
     sum_band     :     15.92s CPU     19.20s WALL (     132 calls)
     v_of_rho     :      0.47s CPU      0.48s WALL (     145 calls)
     newd         :     13.12s CPU     16.38s WALL (     145 calls)
     mix_rho      :      0.25s CPU      0.26s WALL (     132 calls)

     Called by c_bands:
     init_us_2    :      0.68s CPU      0.72s WALL (    1758 calls)
     cegterg      :     22.64s CPU     24.05s WALL (     792 calls)

     Called by *egterg:
     cdiaghg      :      3.01s CPU      3.16s WALL (    4281 calls)
     h_psi        :     15.43s CPU     16.50s WALL (    4371 calls)
     s_psi        :      0.67s CPU      0.71s WALL (    4371 calls)
     g_psi        :      0.11s CPU      0.11s WALL (    3573 calls)

     Called by h_psi:
     h_psi:calbec :      1.17s CPU      1.27s WALL (    4371 calls)
     vloc_psi     :     13.37s CPU     14.29s WALL (    4371 calls)
     add_vuspsi   :      0.75s CPU      0.80s WALL (    4371 calls)

     General routines
     calbec       :      1.90s CPU      2.03s WALL (    6591 calls)
     fft          :      0.84s CPU      0.87s WALL (     926 calls)
     ffts         :      0.09s CPU      0.09s WALL (     277 calls)
     fftw         :     12.16s CPU     13.02s WALL (  127572 calls)
     interpolate  :      0.18s CPU      0.18s WALL (     145 calls)

     Parallel routines

     PWSCF        :   1m13.76s CPU   1m23.16s WALL


   This run was terminated on:  12:33:42  21Oct2025            

=------------------------------------------------------------------------------=
   JOB DONE.
=------------------------------------------------------------------------------=
