
     Program PWSCF v.7.4.1 starts on 21Oct2025 at 17:29:54 

     This program is part of the open-source Quantum ESPRESSO suite
     for quantum simulation of materials; please cite
         "P. Giannozzi et al., J. Phys.:Condens. Matter 21 395502 (2009);
         "P. Giannozzi et al., J. Phys.:Condens. Matter 29 465901 (2017);
         "P. Giannozzi et al., J. Chem. Phys. 152 154105 (2020);
          URL http://www.quantum-espresso.org", 
     in publications or presentations arising from this work. More details at
     http://www.quantum-espresso.org/quote

     Parallel version (MPI), running on     2 processors

     MPI processes distributed on     1 nodes
     301 MiB available memory on the printing compute node when the environment starts

     Waiting for input...
     Reading input from standard input

     Current dimensions of program PWSCF are:
     Max number of different atomic species (ntypx) = 10
     Max number of k-points (npk) =  40000
     Max angular momentum in pseudopotentials (lmaxx) =  4
     file Cu.pz-d-rrkjus.UPF: wavefunction(s)  3D renormalized
     Message from routine setup:
     using ibrav=0 with symmetry is DISCOURAGED, use correct ibrav instead

     R & G space division:  proc/nbgrp/npool/nimage =       2
     Subspace diagonalization in iterative solution of the eigenvalue problem:
     a serial algorithm will be used


     Parallelization info
     --------------------
     sticks:   dense  smooth     PW     G-vecs:    dense   smooth      PW
     Min         255     126     42                 3815     1365     267
     Max         256     127     43                 3816     1368     270
     Sum         511     253     85                 7631     2733     537

     Using Slab Decomposition



     bravais-lattice index     =            0
     lattice parameter (alat)  =       4.8105  a.u.
     unit-cell volume          =      78.7126 (a.u.)^3
     number of atoms/cell      =            1
     number of atomic types    =            1
     number of electrons       =        11.00
     number of Kohn-Sham states=           10
     kinetic-energy cutoff     =      40.0000  Ry
     charge density cutoff     =     320.0000  Ry
     scf convergence threshold =      1.0E-07
     mixing beta               =       0.7000
     number of iterations used =            8  plain     mixing
     energy convergence thresh.=      1.0E-04
     force convergence thresh. =      1.0E-03
     press convergence thresh. =      5.0E-01
     Exchange-correlation=  SLA  PZ   NOGX NOGC
                           (   1   1   0   0   0   0   0)
     nstep                     =           50


     celldm(1)=   4.810457  celldm(2)=   0.000000  celldm(3)=   0.000000
     celldm(4)=   0.000000  celldm(5)=   0.000000  celldm(6)=   0.000000

     crystal axes: (cart. coord. in units of alat)
               a(1) = (   0.000000   0.707107   0.707107 )  
               a(2) = (   0.707107   0.000000   0.707107 )  
               a(3) = (   0.707107   0.707107   0.000000 )  

     reciprocal axes: (cart. coord. in units 2 pi/alat)
               b(1) = ( -0.707107  0.707107  0.707107 )  
               b(2) = (  0.707107 -0.707107  0.707107 )  
               b(3) = (  0.707107  0.707107 -0.707107 )  


     PseudoPot. # 1 for Cu read from file:
     /home/bond/Software/QE/qe-7.4.1/pseudo/Cu.pz-d-rrkjus.UPF
     MD5 check sum: fd38ae683e239c95a66f426e1f8e5fc7
     Pseudo is Ultrasoft, Zval = 11.0
     Generated by new atomic code, or converted to UPF format
     Using radial grid of  899 points,  3 beta functions with: 
                l(1) =   2
                l(2) =   2
                l(3) =   1
     Q(r) pseudized with 0 coefficients 


     atomic species   valence    mass     pseudopotential
     Cu               11.00    63.54600     Cu( 1.00)

     48 Sym. Ops., with inversion, found



   Cartesian axes

     site n.     atom                  positions (alat units)
         1        Cu     tau(   1) = (   0.0000000   0.0000000   0.0000000  )

     number of k points=    10  Methfessel-Paxton smearing, width (Ry)=  0.0200
                       cart. coord. in units 2pi/alat
        k(    1) = (   0.0883883   0.0883883   0.0883883), wk =   0.0625000
        k(    2) = (   0.2651650   0.2651650  -0.0883883), wk =   0.1875000
        k(    3) = (  -0.2651650  -0.2651650   0.4419417), wk =   0.1875000
        k(    4) = (  -0.0883883  -0.0883883   0.2651650), wk =   0.1875000
        k(    5) = (   0.4419417   0.0883883   0.0883883), wk =   0.1875000
        k(    6) = (  -0.0883883  -0.4419417   0.6187184), wk =   0.3750000
        k(    7) = (   0.0883883  -0.2651650   0.4419417), wk =   0.3750000
        k(    8) = (  -0.6187184   0.0883883   0.0883883), wk =   0.1875000
        k(    9) = (   0.2651650   0.2651650   0.2651650), wk =   0.0625000
        k(   10) = (  -0.2651650  -0.2651650   0.7954951), wk =   0.1875000

     Dense  grid:     7631 G-vectors     FFT dimensions: (  27,  27,  27)

     Smooth grid:     2733 G-vectors     FFT dimensions: (  20,  20,  20)

     Estimated max dynamical RAM per process >      10.45 MB

     Estimated total dynamical RAM >      20.90 MB

     Initial potential from superposition of free atoms

     starting charge      10.9997, renormalised to      11.0000
     Starting wfcs are    6 randomized atomic wfcs +    4 random wfcs

     total cpu time spent up to now is        0.6 secs

     Self-consistent Calculation

     iteration #  1     ecut=    40.00 Ry     beta= 0.70
     Davidson diagonalization with overlap
     ethr =  1.00E-02,  avg # of iterations =  5.5

     total cpu time spent up to now is        0.7 secs

     total energy              =     -87.71782976 Ry
     estimated scf accuracy    <       0.25369453 Ry

     iteration #  2     ecut=    40.00 Ry     beta= 0.70
     Davidson diagonalization with overlap
     ethr =  2.31E-03,  avg # of iterations =  2.0
     Minimization algorithm failed to find Fermi energy: reverting to bisection
     Possible cause: smearing is larger than the electronic band-gap.

     total cpu time spent up to now is        0.8 secs

     total energy              =     -87.80484167 Ry
     estimated scf accuracy    <       0.22126207 Ry

     iteration #  3     ecut=    40.00 Ry     beta= 0.70
     Davidson diagonalization with overlap
     ethr =  2.01E-03,  avg # of iterations =  1.0

     total cpu time spent up to now is        0.8 secs

     total energy              =     -87.83766370 Ry
     estimated scf accuracy    <       0.00194049 Ry

     iteration #  4     ecut=    40.00 Ry     beta= 0.70
     Davidson diagonalization with overlap
     ethr =  1.76E-05,  avg # of iterations =  2.0

     total cpu time spent up to now is        0.9 secs

     total energy              =     -87.83825373 Ry
     estimated scf accuracy    <       0.00003189 Ry

     iteration #  5     ecut=    40.00 Ry     beta= 0.70
     Davidson diagonalization with overlap
     ethr =  2.90E-07,  avg # of iterations =  1.8

     total cpu time spent up to now is        1.0 secs

     total energy              =     -87.83825110 Ry
     estimated scf accuracy    <       0.00000959 Ry

     iteration #  6     ecut=    40.00 Ry     beta= 0.70
     Davidson diagonalization with overlap
     ethr =  8.72E-08,  avg # of iterations =  1.0

     total cpu time spent up to now is        1.0 secs

     End of self-consistent calculation

          k = 0.0884 0.0884 0.0884 (   332 PWs)   bands (ev):

     5.1815  10.6023  10.8084  10.8084  11.5286  11.5286  33.2405  38.2372
    38.5210  38.5210

          k = 0.2652 0.2652-0.0884 (   335 PWs)   bands (ev):

     7.7778  10.3355  10.7640  11.0028  11.5023  12.2554  25.0058  30.5069
    38.2473  38.4938

          k =-0.2652-0.2652 0.4419 (   339 PWs)   bands (ev):

     8.9580  10.4858  10.8720  11.1154  12.1557  14.0411  18.5408  31.8141
    33.5541  35.3480

          k =-0.0884-0.0884 0.2652 (   333 PWs)   bands (ev):

     6.5959  10.2811  10.9310  11.0461  11.4462  11.7651  29.1203  33.7601
    35.4333  37.7879

          k = 0.4419 0.0884 0.0884 (   333 PWs)   bands (ev):

     8.5889   9.7901  10.9457  11.4910  12.0642  12.4142  26.0851  29.3925
    30.1184  33.9758

          k =-0.0884-0.4419 0.6187 (   339 PWs)   bands (ev):

     9.5580   9.8181  10.6380  11.5904  12.1706  17.3236  20.4481  23.9236
    26.1889  37.8852

          k = 0.0884-0.2652 0.4419 (   334 PWs)   bands (ev):

     9.2091  10.1433  10.4474  11.2813  11.9098  13.7590  22.0934  27.6619
    30.6488  38.5255

          k =-0.6187 0.0884 0.0884 (   334 PWs)   bands (ev):

     9.0355   9.4433  11.6675  11.9197  12.2291  15.2795  22.8711  24.3889
    28.0903  33.1433

          k = 0.2652 0.2652 0.2652 (   338 PWs)   bands (ev):

     8.3334  10.7496  10.7496  11.2608  11.9778  11.9778  20.9907  36.4960
    36.5709  36.5709

          k =-0.2652-0.2652 0.7955 (   339 PWs)   bands (ev):

     9.5744  10.0696  10.5859  11.2722  11.9552  16.1069  19.3216  25.1498
    31.9399  34.7858

     the Fermi energy is    13.8649 ev

!    total energy              =     -87.83825267 Ry
     estimated scf accuracy    <       0.00000004 Ry
     smearing contrib. (-TS)   =      -0.00068966 Ry
     internal energy E=F+TS    =     -87.83756301 Ry

     The total energy is F=E-TS. E is the sum of the following terms:
     one-electron contribution =     -11.61492234 Ry
     hartree contribution      =      19.36673343 Ry
     xc contribution           =     -14.04194424 Ry
     ewald contribution        =     -81.54742986 Ry

     convergence has been achieved in   6 iterations


     Computing stress (Cartesian axis) and pressure

          total   stress  (Ry/bohr**3)                   (kbar)     P=      -48.42
  -0.00032917   0.00000000   0.00000000          -48.42        0.00        0.00
   0.00000000  -0.00032917   0.00000000            0.00      -48.42        0.00
   0.00000000   0.00000000  -0.00032917            0.00        0.00      -48.42


     BFGS Geometry Optimization
     Energy error            =      6.4E-04 Ry
     Gradient error          =      0.0E+00 Ry/Bohr
     Cell gradient error     =      4.8E+01 kbar

     number of scf cycles    =   1
     number of bfgs steps    =   0

     enthalpy           new  =     -87.8382526676 Ry

     new trust radius        =       0.0146019848 bohr
     new conv_thr            =       0.0000001000 Ry

     new unit-cell volume =     76.78529 a.u.^3 (    11.37841 Ang^3 )
     density =      9.27376 g/cm^3

CELL_PARAMETERS (angstrom)
   0.000000000   1.785187364   1.785187364
   1.785187364   0.000000000   1.785187364
   1.785187364   1.785187364   0.000000000

ATOMIC_POSITIONS (angstrom)
Cu               0.0000000000        0.0000000000        0.0000000000    0   0   0


     Message from routine punch:
     Nothing written, as per user request (disk_io='none')
     NEW-OLD atomic charge density approx. for the potential
     New effective cutoffs (rho, wfc):  322.61   40.58

     total cpu time spent up to now is        1.1 secs

     Self-consistent Calculation

     iteration #  1     ecut=    40.00 Ry     beta= 0.70
     Davidson diagonalization with overlap
     ethr =  1.00E-06,  avg # of iterations =  3.5

     total cpu time spent up to now is        1.2 secs

     total energy              =     -87.83858893 Ry
     estimated scf accuracy    <       0.00001405 Ry

     iteration #  2     ecut=    40.00 Ry     beta= 0.70
     Davidson diagonalization with overlap
     ethr =  1.28E-07,  avg # of iterations =  2.0

     total cpu time spent up to now is        1.3 secs

     total energy              =     -87.83859200 Ry
     estimated scf accuracy    <       0.00001152 Ry

     iteration #  3     ecut=    40.00 Ry     beta= 0.70
     Davidson diagonalization with overlap
     ethr =  1.05E-07,  avg # of iterations =  1.0

     total cpu time spent up to now is        1.4 secs

     End of self-consistent calculation

          k = 0.0891 0.0891 0.0891 (   332 PWs)   bands (ev):

     5.4795  10.9907  11.2052  11.2052  11.9536  11.9536  34.0266  39.0271
    39.4260  39.4260

          k = 0.2674 0.2674-0.0891 (   335 PWs)   bands (ev):

     8.1131  10.7120  11.1577  11.4067  11.9257  12.7070  25.6807  31.2617
    39.0653  39.4213

          k =-0.2674-0.2674 0.4456 (   339 PWs)   bands (ev):

     9.2955  10.8674  11.2706  11.5153  12.6051  14.5056  19.1440  32.5770
    34.3756  36.1552

          k =-0.0891-0.0891 0.2674 (   333 PWs)   bands (ev):

     6.9164  10.6564  11.3320  11.4519  11.8675  12.1994  29.8524  34.5812
    36.2034  38.6677

          k = 0.4456 0.0891 0.0891 (   333 PWs)   bands (ev):

     8.9260  10.1462  11.3471  11.9138  12.5101  12.8659  26.7689  30.1264
    30.8677  34.7841

          k =-0.0891-0.4456 0.6239 (   339 PWs)   bands (ev):

     9.9039  10.1749  11.0255  12.0166  12.6204  17.8588  21.0456  24.5910
    26.8879  38.7482

          k = 0.0891-0.2674 0.4456 (   334 PWs)   bands (ev):

     9.5570  10.5108  10.8295  11.6954  12.3489  14.2445  22.7247  28.3729
    31.4141  39.3955

          k =-0.6239 0.0891 0.0891 (   334 PWs)   bands (ev):

     9.3647   9.7865  12.0934  12.3595  12.6813  15.7685  23.5244  25.0500
    28.7963  33.9388

          k = 0.2674 0.2674 0.2674 (   338 PWs)   bands (ev):

     8.6655  11.1437  11.1437  11.6591  12.4201  12.4201  21.6167  37.2252
    37.4624  37.4624

          k =-0.2674-0.2674 0.8021 (   339 PWs)   bands (ev):

     9.9278  10.4326  10.9705  11.6861  12.3965  16.6235  19.9160  25.8332
    32.7282  35.5905

     the Fermi energy is    14.3452 ev

!    total energy              =     -87.83859434 Ry
     estimated scf accuracy    <       0.00000008 Ry
     smearing contrib. (-TS)   =      -0.00078351 Ry
     internal energy E=F+TS    =     -87.83781083 Ry

     The total energy is F=E-TS. E is the sum of the following terms:
     one-electron contribution =     -10.57401552 Ry
     hartree contribution      =      19.01542214 Ry
     xc contribution           =     -14.05514580 Ry
     ewald contribution        =     -82.22407165 Ry

     convergence has been achieved in   3 iterations


     Computing stress (Cartesian axis) and pressure

          total   stress  (Ry/bohr**3)                   (kbar)     P=      -10.97
  -0.00007455   0.00000000  -0.00000000          -10.97        0.00       -0.00
   0.00000000  -0.00007455  -0.00000000            0.00      -10.97       -0.00
  -0.00000000  -0.00000000  -0.00007455           -0.00       -0.00      -10.97

     Energy error            =      3.4E-04 Ry
     Gradient error          =      0.0E+00 Ry/Bohr
     Cell gradient error     =      1.1E+01 kbar

     number of scf cycles    =   2
     number of bfgs steps    =   1

     enthalpy           old  =     -87.8382526676 Ry
     enthalpy           new  =     -87.8385943427 Ry

     CASE: enthalpy          _new < enthalpy          _old

     new trust radius        =       0.0041677374 bohr
     new conv_thr            =       0.0000000010 Ry

     new unit-cell volume =     76.23878 a.u.^3 (    11.29742 Ang^3 )
     density =      9.34024 g/cm^3

CELL_PARAMETERS (angstrom)
   0.000000000   1.780941998   1.780941998
   1.780941998   0.000000000   1.780941998
   1.780941998   1.780941998   0.000000000

ATOMIC_POSITIONS (angstrom)
Cu               0.0000000000        0.0000000000        0.0000000000    0   0   0


     Message from routine punch:
     Nothing written, as per user request (disk_io='none')
     NEW-OLD atomic charge density approx. for the potential
     New effective cutoffs (rho, wfc):  324.15   40.78

     total cpu time spent up to now is        1.5 secs

     Self-consistent Calculation

     iteration #  1     ecut=    40.00 Ry     beta= 0.70
     Davidson diagonalization with overlap
     ethr =  1.00E-06,  avg # of iterations =  3.0

     Threshold (ethr) on eigenvalues was too large:
     Diagonalizing with lowered threshold

     Davidson diagonalization with overlap
     ethr =  6.40E-09,  avg # of iterations =  1.3

     total cpu time spent up to now is        1.6 secs

     total energy              =     -87.83859796 Ry
     estimated scf accuracy    <       0.00000074 Ry

     iteration #  2     ecut=    40.00 Ry     beta= 0.70
     Davidson diagonalization with overlap
     ethr =  6.70E-09,  avg # of iterations =  1.9

     total cpu time spent up to now is        1.7 secs

     total energy              =     -87.83859810 Ry
     estimated scf accuracy    <       0.00000055 Ry

     iteration #  3     ecut=    40.00 Ry     beta= 0.70
     Davidson diagonalization with overlap
     ethr =  5.02E-09,  avg # of iterations =  1.0

     total cpu time spent up to now is        1.8 secs

     total energy              =     -87.83859822 Ry
     estimated scf accuracy    <          7.6E-09 Ry

     iteration #  4     ecut=    40.00 Ry     beta= 0.70
     Davidson diagonalization with overlap
     ethr =  6.87E-11,  avg # of iterations =  1.1

     total cpu time spent up to now is        1.8 secs

     End of self-consistent calculation

          k = 0.0893 0.0893 0.0893 (   332 PWs)   bands (ev):

     5.5668  11.1032  11.3202  11.3202  12.0770  12.0770  34.2559  39.2576
    39.6900  39.6900

          k = 0.2680 0.2680-0.0893 (   335 PWs)   bands (ev):

     8.2111  10.8212  11.2718  11.5238  12.0485  12.8382  25.8778  31.4819
    39.3041  39.6918

          k =-0.2680-0.2680 0.4467 (   339 PWs)   bands (ev):

     9.3934  10.9780  11.3862  11.6315  12.7355  14.6412  19.3201  32.7994
    34.6154  36.3911

          k =-0.0893-0.0893 0.2680 (   333 PWs)   bands (ev):

     7.0102  10.7652  11.4482  11.5696  11.9897  12.3254  30.0662  34.8209
    36.4280  38.9241

          k = 0.4467 0.0893 0.0893 (   333 PWs)   bands (ev):

     9.0243  10.2493  11.4636  12.0365  12.6395  12.9973  26.9685  30.3405
    31.0865  35.0202

          k =-0.0893-0.4467 0.6253 (   339 PWs)   bands (ev):

    10.0041  10.2784  11.1379  12.1403  12.7509  18.0152  21.2201  24.7858
    27.0922  39.0002

          k = 0.0893-0.2680 0.4467 (   334 PWs)   bands (ev):

     9.6582  10.6173  10.9402  11.8155  12.4763  14.3859  22.9090  28.5804
    31.6376  39.6495

          k =-0.6253 0.0893 0.0893 (   334 PWs)   bands (ev):

     9.4601   9.8858  12.2171  12.4872  12.8125  15.9113  23.7149  25.2433
    29.0024  34.1711

          k = 0.2680 0.2680 0.2680 (   338 PWs)   bands (ev):

     8.7622  11.2579  11.2579  11.7751  12.5485  12.5485  21.7996  37.4381
    37.7225  37.7225

          k =-0.2680-0.2680 0.8040 (   339 PWs)   bands (ev):

    10.0303  10.5378  11.0820  11.8062  12.5245  16.7743  20.0896  26.0328
    32.9584  35.8255

     the Fermi energy is    14.4852 ev

!    total energy              =     -87.83859822 Ry
     estimated scf accuracy    <          1.6E-11 Ry
     smearing contrib. (-TS)   =      -0.00081007 Ry
     internal energy E=F+TS    =     -87.83778814 Ry

     The total energy is F=E-TS. E is the sum of the following terms:
     one-electron contribution =     -10.27388554 Ry
     hartree contribution      =      18.91542455 Ry
     xc contribution           =     -14.05925176 Ry
     ewald contribution        =     -82.42007539 Ry

     convergence has been achieved in   4 iterations


     Computing stress (Cartesian axis) and pressure

          total   stress  (Ry/bohr**3)                   (kbar)     P=        4.79
   0.00003256   0.00000000   0.00000000            4.79        0.00        0.00
   0.00000000   0.00003256   0.00000000            0.00        4.79        0.00
   0.00000000   0.00000000   0.00003256            0.00        0.00        4.79

     Energy error            =      3.9E-06 Ry
     Gradient error          =      0.0E+00 Ry/Bohr
     Cell gradient error     =      4.8E+00 kbar

     number of scf cycles    =   3
     number of bfgs steps    =   2

     enthalpy           old  =     -87.8385943427 Ry
     enthalpy           new  =     -87.8385982161 Ry

     CASE: enthalpy          _new < enthalpy          _old

     new trust radius        =       0.0012611523 bohr
     new conv_thr            =       0.0000000010 Ry

     new unit-cell volume =     76.40407 a.u.^3 (    11.32192 Ang^3 )
     density =      9.32003 g/cm^3

CELL_PARAMETERS (angstrom)
   0.000000000   1.782228171   1.782228171
   1.782228171   0.000000000   1.782228171
   1.782228171   1.782228171   0.000000000

ATOMIC_POSITIONS (angstrom)
Cu               0.0000000000        0.0000000000        0.0000000000    0   0   0


     Message from routine punch:
     Nothing written, as per user request (disk_io='none')
     NEW-OLD atomic charge density approx. for the potential
     New effective cutoffs (rho, wfc):  323.68   40.72

     total cpu time spent up to now is        2.0 secs

     Self-consistent Calculation

     iteration #  1     ecut=    40.00 Ry     beta= 0.70
     Davidson diagonalization with overlap
     ethr =  1.00E-06,  avg # of iterations =  2.1

     Threshold (ethr) on eigenvalues was too large:
     Diagonalizing with lowered threshold

     Davidson diagonalization with overlap
     ethr =  1.07E-09,  avg # of iterations =  2.0

     total cpu time spent up to now is        2.1 secs

     total energy              =     -87.83860161 Ry
     estimated scf accuracy    <       0.00000012 Ry

     iteration #  2     ecut=    40.00 Ry     beta= 0.70
     Davidson diagonalization with overlap
     ethr =  1.09E-09,  avg # of iterations =  2.0

     total cpu time spent up to now is        2.2 secs

     total energy              =     -87.83860163 Ry
     estimated scf accuracy    <       0.00000010 Ry

     iteration #  3     ecut=    40.00 Ry     beta= 0.70
     Davidson diagonalization with overlap
     ethr =  9.22E-10,  avg # of iterations =  1.0

     total cpu time spent up to now is        2.2 secs

     End of self-consistent calculation

          k = 0.0893 0.0893 0.0893 (   332 PWs)   bands (ev):

     5.5402  11.0686  11.2849  11.2849  12.0391  12.0391  34.1861  39.1875
    39.6097  39.6097

          k = 0.2678 0.2678-0.0893 (   335 PWs)   bands (ev):

     8.1812  10.7877  11.2367  11.4878  12.0108  12.7979  25.8178  31.4149
    39.2315  39.6095

          k =-0.2678-0.2678 0.4463 (   339 PWs)   bands (ev):

     9.3634  10.9440  11.3507  11.5959  12.6954  14.5997  19.2664  32.7317
    34.5423  36.3193

          k =-0.0893-0.0893 0.2678 (   333 PWs)   bands (ev):

     6.9816  10.7317  11.4125  11.5334  11.9521  12.2867  30.0011  34.7479
    36.3597  38.8460

          k = 0.4463 0.0893 0.0893 (   333 PWs)   bands (ev):

     8.9943  10.2176  11.4279  11.9988  12.5998  12.9570  26.9077  30.2753
    31.0199  34.9483

          k =-0.0893-0.4463 0.6249 (   339 PWs)   bands (ev):

     9.9734  10.2466  11.1034  12.1023  12.7108  17.9675  21.1669  24.7264
    27.0300  38.9235

          k = 0.0893-0.2678 0.4463 (   334 PWs)   bands (ev):

     9.6272  10.5846  10.9062  11.7786  12.4371  14.3426  22.8528  28.5172
    31.5696  39.5722

          k =-0.6249 0.0893 0.0893 (   334 PWs)   bands (ev):

     9.4308   9.8553  12.1791  12.4480  12.7722  15.8677  23.6569  25.1844
    28.9397  34.1004

          k = 0.2678 0.2678 0.2678 (   338 PWs)   bands (ev):

     8.7326  11.2228  11.2228  11.7396  12.5090  12.5090  21.7438  37.3734
    37.6433  37.6433

          k =-0.2678-0.2678 0.8034 (   339 PWs)   bands (ev):

     9.9988  10.5055  11.0477  11.7693  12.4852  16.7283  20.0366  25.9720
    32.8883  35.7540

     the Fermi energy is    14.4424 ev

!    total energy              =     -87.83860165 Ry
     estimated scf accuracy    <          5.8E-10 Ry
     smearing contrib. (-TS)   =      -0.00080159 Ry
     internal energy E=F+TS    =     -87.83780006 Ry

     The total energy is F=E-TS. E is the sum of the following terms:
     one-electron contribution =     -10.36521701 Ry
     hartree contribution      =      18.94608756 Ry
     xc contribution           =     -14.05807496 Ry
     ewald contribution        =     -82.36059565 Ry

     convergence has been achieved in   3 iterations


     Computing stress (Cartesian axis) and pressure

          total   stress  (Ry/bohr**3)                   (kbar)     P=        1.58
   0.00001076  -0.00000000   0.00000000            1.58       -0.00        0.00
  -0.00000000   0.00001076  -0.00000000           -0.00        1.58       -0.00
   0.00000000  -0.00000000   0.00001076            0.00       -0.00        1.58

     Energy error            =      3.4E-06 Ry
     Gradient error          =      0.0E+00 Ry/Bohr
     Cell gradient error     =      1.6E+00 kbar

     number of scf cycles    =   4
     number of bfgs steps    =   3

     enthalpy           old  =     -87.8385982161 Ry
     enthalpy           new  =     -87.8386016532 Ry

     CASE: enthalpy          _new < enthalpy          _old

     new trust radius        =       0.0006242444 bohr
     new conv_thr            =       0.0000000010 Ry

     new unit-cell volume =     76.48595 a.u.^3 (    11.33405 Ang^3 )
     density =      9.31006 g/cm^3

CELL_PARAMETERS (angstrom)
   0.000000000   1.782864570   1.782864570
   1.782864570   0.000000000   1.782864570
   1.782864570   1.782864570   0.000000000

ATOMIC_POSITIONS (angstrom)
Cu               0.0000000000        0.0000000000        0.0000000000    0   0   0


     Message from routine punch:
     Nothing written, as per user request (disk_io='none')
     NEW-OLD atomic charge density approx. for the potential
     New effective cutoffs (rho, wfc):  323.45   40.69

     total cpu time spent up to now is        2.4 secs

     Self-consistent Calculation

     iteration #  1     ecut=    40.00 Ry     beta= 0.70
     Davidson diagonalization with overlap
     ethr =  1.00E-06,  avg # of iterations =  2.0

     Threshold (ethr) on eigenvalues was too large:
     Diagonalizing with lowered threshold

     Davidson diagonalization with overlap
     ethr =  1.95E-10,  avg # of iterations =  2.0

     total cpu time spent up to now is        2.5 secs

     total energy              =     -87.83860186 Ry
     estimated scf accuracy    <       0.00000002 Ry

     iteration #  2     ecut=    40.00 Ry     beta= 0.70
     Davidson diagonalization with overlap
     ethr =  2.02E-10,  avg # of iterations =  2.0

     total cpu time spent up to now is        2.5 secs

     total energy              =     -87.83860186 Ry
     estimated scf accuracy    <       0.00000002 Ry

     iteration #  3     ecut=    40.00 Ry     beta= 0.70
     Davidson diagonalization with overlap
     ethr =  1.62E-10,  avg # of iterations =  1.0

     total cpu time spent up to now is        2.6 secs

     End of self-consistent calculation

          k = 0.0892 0.0892 0.0892 (   332 PWs)   bands (ev):

     5.5270  11.0516  11.2675  11.2675  12.0205  12.0205  34.1517  39.1529
    39.5700  39.5700

          k = 0.2677 0.2677-0.0892 (   335 PWs)   bands (ev):

     8.1664  10.7712  11.2195  11.4701  11.9923  12.7781  25.7882  31.3818
    39.1956  39.5688

          k =-0.2677-0.2677 0.4462 (   339 PWs)   bands (ev):

     9.3486  10.9273  11.3332  11.5783  12.6757  14.5793  19.2399  32.6983
    34.5063  36.2839

          k =-0.0892-0.0892 0.2677 (   333 PWs)   bands (ev):

     6.9675  10.7153  11.3949  11.5156  11.9337  12.2677  29.9690  34.7119
    36.3260  38.8075

          k = 0.4462 0.0892 0.0892 (   333 PWs)   bands (ev):

     8.9795  10.2020  11.4103  11.9803  12.5802  12.9372  26.8777  30.2432
    30.9870  34.9129

          k =-0.0892-0.4462 0.6247 (   339 PWs)   bands (ev):

     9.9582  10.2310  11.0864  12.0837  12.6911  17.9440  21.1407  24.6971
    26.9993  38.8857

          k = 0.0892-0.2677 0.4462 (   334 PWs)   bands (ev):

     9.6120  10.5685  10.8895  11.7605  12.4179  14.3213  22.8251  28.4860
    31.5360  39.5341

          k =-0.6247 0.0892 0.0892 (   334 PWs)   bands (ev):

     9.4164   9.8403  12.1605  12.4287  12.7524  15.8463  23.6282  25.1554
    28.9087  34.0655

          k = 0.2677 0.2677 0.2677 (   338 PWs)   bands (ev):

     8.7180  11.2055  11.2055  11.7222  12.4896  12.4896  21.7163  37.3415
    37.6043  37.6043

          k =-0.2677-0.2677 0.8031 (   339 PWs)   bands (ev):

     9.9833  10.4896  11.0309  11.7512  12.4658  16.7056  20.0105  25.9420
    32.8537  35.7187

     the Fermi energy is    14.4213 ev

!    total energy              =     -87.83860187 Ry
     estimated scf accuracy    <          1.5E-10 Ry
     smearing contrib. (-TS)   =      -0.00079749 Ry
     internal energy E=F+TS    =     -87.83780437 Ry

     The total energy is F=E-TS. E is the sum of the following terms:
     one-electron contribution =     -10.41031288 Ry
     hartree contribution      =      18.96118539 Ry
     xc contribution           =     -14.05748011 Ry
     ewald contribution        =     -82.33119677 Ry

     convergence has been achieved in   3 iterations


     Computing stress (Cartesian axis) and pressure

          total   stress  (Ry/bohr**3)                   (kbar)     P=       -0.32
  -0.00000220  -0.00000000  -0.00000000           -0.32       -0.00       -0.00
  -0.00000000  -0.00000220  -0.00000000           -0.00       -0.32       -0.00
  -0.00000000   0.00000000  -0.00000220           -0.00        0.00       -0.32

     Energy error            =      2.1E-07 Ry
     Gradient error          =      0.0E+00 Ry/Bohr
     Cell gradient error     =      3.2E-01 kbar

     bfgs converged in   5 scf cycles and   4 bfgs steps
     (criteria: energy <  1.0E-04 Ry, force <  1.0E-03 Ry/Bohr, cell <  5.0E-01 kbar)

     End of BFGS Geometry Optimization

     Final enthalpy           =     -87.8386018668 Ry

     File /home/bond/Work/Lab4/Problem3/Cu_nk_4/pwscf.bfgs deleted, as requested
Begin final coordinates
     new unit-cell volume =     76.48595 a.u.^3 (    11.33405 Ang^3 )
     density =      9.31006 g/cm^3

CELL_PARAMETERS (angstrom)
   0.000000000   1.782864570   1.782864570
   1.782864570   0.000000000   1.782864570
   1.782864570   1.782864570   0.000000000

ATOMIC_POSITIONS (angstrom)
Cu               0.0000000000        0.0000000000        0.0000000000    0   0   0
End final coordinates


     Message from routine punch:
     Nothing written, as per user request (disk_io='none')

     Final scf calculation at the relaxed structure.
     The G-vectors are recalculated for the final unit cell
     Results may differ from those at the preceding step.

     Parallelization info
     --------------------
     sticks:   dense  smooth     PW     G-vecs:    dense   smooth      PW
     Min         249     126     42                 3694     1341     267
     Max         250     127     43                 3697     1344     270
     Sum         499     253     85                 7391     2685     537

     Using Slab Decomposition



     bravais-lattice index     =            0
     lattice parameter (alat)  =       4.8105  a.u.
     unit-cell volume          =      76.4859 (a.u.)^3
     number of atoms/cell      =            1
     number of atomic types    =            1
     number of electrons       =        11.00
     number of Kohn-Sham states=           10
     kinetic-energy cutoff     =      40.0000  Ry
     charge density cutoff     =     320.0000  Ry
     scf convergence threshold =      1.0E-09
     mixing beta               =       0.7000
     number of iterations used =            8  plain     mixing
     press convergence thresh. =      5.0E-01
     Exchange-correlation=  SLA  PZ   NOGX NOGC
                           (   1   1   0   0   0   0   0)

     celldm(1)=   4.810457  celldm(2)=   0.000000  celldm(3)=   0.000000
     celldm(4)=   0.000000  celldm(5)=   0.000000  celldm(6)=   0.000000

     crystal axes: (cart. coord. in units of alat)
               a(1) = (   0.000000   0.700375   0.700375 )  
               a(2) = (   0.700375   0.000000   0.700375 )  
               a(3) = (   0.700375   0.700375   0.000000 )  

     reciprocal axes: (cart. coord. in units 2 pi/alat)
               b(1) = ( -0.713903  0.713903  0.713903 )  
               b(2) = (  0.713903 -0.713903  0.713903 )  
               b(3) = (  0.713903  0.713903 -0.713903 )  


     PseudoPot. # 1 for Cu read from file:
     /home/bond/Software/QE/qe-7.4.1/pseudo/Cu.pz-d-rrkjus.UPF
     MD5 check sum: fd38ae683e239c95a66f426e1f8e5fc7
     Pseudo is Ultrasoft, Zval = 11.0
     Generated by new atomic code, or converted to UPF format
     Using radial grid of  899 points,  3 beta functions with: 
                l(1) =   2
                l(2) =   2
                l(3) =   1
     Q(r) pseudized with 0 coefficients 


     atomic species   valence    mass     pseudopotential
     Cu               11.00    63.54600     Cu( 1.00)

     48 Sym. Ops., with inversion, found



   Cartesian axes

     site n.     atom                  positions (alat units)
         1        Cu     tau(   1) = (   0.0000000   0.0000000   0.0000000  )

     number of k points=    10  Methfessel-Paxton smearing, width (Ry)=  0.0200
                       cart. coord. in units 2pi/alat
        k(    1) = (   0.0892379   0.0892379   0.0892379), wk =   0.0625000
        k(    2) = (   0.2677136   0.2677136  -0.0892379), wk =   0.1875000
        k(    3) = (  -0.2677136  -0.2677136   0.4461893), wk =   0.1875000
        k(    4) = (  -0.0892379  -0.0892379   0.2677136), wk =   0.1875000
        k(    5) = (   0.4461893   0.0892379   0.0892379), wk =   0.1875000
        k(    6) = (  -0.0892379  -0.4461893   0.6246650), wk =   0.3750000
        k(    7) = (   0.0892379  -0.2677136   0.4461893), wk =   0.3750000
        k(    8) = (  -0.6246650   0.0892379   0.0892379), wk =   0.1875000
        k(    9) = (   0.2677136   0.2677136   0.2677136), wk =   0.0625000
        k(   10) = (  -0.2677136  -0.2677136   0.8031408), wk =   0.1875000

     Dense  grid:     7391 G-vectors     FFT dimensions: (  27,  27,  27)

     Smooth grid:     2685 G-vectors     FFT dimensions: (  20,  20,  20)

     Estimated max dynamical RAM per process >      10.19 MB

     Estimated total dynamical RAM >      20.39 MB

     Initial potential from superposition of free atoms

     starting charge      10.9997, renormalised to      11.0000
     Starting wfcs are    6 randomized atomic wfcs +    4 random wfcs

     total cpu time spent up to now is        2.8 secs

     Self-consistent Calculation

     iteration #  1     ecut=    40.00 Ry     beta= 0.70
     Davidson diagonalization with overlap
     ethr =  1.00E-06,  avg # of iterations = 12.4

     total cpu time spent up to now is        2.9 secs

     total energy              =     -87.72079403 Ry
     estimated scf accuracy    <       0.25206806 Ry

     iteration #  2     ecut=    40.00 Ry     beta= 0.70
     Davidson diagonalization with overlap
     ethr =  2.29E-03,  avg # of iterations =  2.0
     Minimization algorithm failed to find Fermi energy: reverting to bisection
     Possible cause: smearing is larger than the electronic band-gap.

     total cpu time spent up to now is        3.0 secs

     total energy              =     -87.80630060 Ry
     estimated scf accuracy    <       0.21019596 Ry

     iteration #  3     ecut=    40.00 Ry     beta= 0.70
     Davidson diagonalization with overlap
     ethr =  1.91E-03,  avg # of iterations =  1.0

     total cpu time spent up to now is        3.1 secs

     total energy              =     -87.83808872 Ry
     estimated scf accuracy    <       0.00159446 Ry

     iteration #  4     ecut=    40.00 Ry     beta= 0.70
     Davidson diagonalization with overlap
     ethr =  1.45E-05,  avg # of iterations =  2.0

     total cpu time spent up to now is        3.1 secs

     total energy              =     -87.83859566 Ry
     estimated scf accuracy    <       0.00003261 Ry

     iteration #  5     ecut=    40.00 Ry     beta= 0.70
     Davidson diagonalization with overlap
     ethr =  2.96E-07,  avg # of iterations =  1.1

     total cpu time spent up to now is        3.2 secs

     total energy              =     -87.83859394 Ry
     estimated scf accuracy    <       0.00000774 Ry

     iteration #  6     ecut=    40.00 Ry     beta= 0.70
     Davidson diagonalization with overlap
     ethr =  7.03E-08,  avg # of iterations =  1.0

     total cpu time spent up to now is        3.3 secs

     total energy              =     -87.83859523 Ry
     estimated scf accuracy    <       0.00000003 Ry

     iteration #  7     ecut=    40.00 Ry     beta= 0.70
     Davidson diagonalization with overlap
     ethr =  3.10E-10,  avg # of iterations =  2.0

     total cpu time spent up to now is        3.3 secs

     total energy              =     -87.83859524 Ry
     estimated scf accuracy    <          1.8E-09 Ry

     iteration #  8     ecut=    40.00 Ry     beta= 0.70
     Davidson diagonalization with overlap
     ethr =  1.63E-11,  avg # of iterations =  1.7

     total cpu time spent up to now is        3.4 secs

     End of self-consistent calculation

          k = 0.0892 0.0892 0.0892 (   329 PWs)   bands (ev):

     5.5271  11.0517  11.2676  11.2676  12.0205  12.0205  34.1517  39.1529
    39.5701  39.5701

          k = 0.2677 0.2677-0.0892 (   326 PWs)   bands (ev):

     8.1665  10.7712  11.2196  11.4702  11.9923  12.7782  25.7882  31.3818
    39.1957  39.5690

          k =-0.2677-0.2677 0.4462 (   331 PWs)   bands (ev):

     9.3487  10.9274  11.3333  11.5784  12.6758  14.5794  19.2399  32.6984
    34.5063  36.2840

          k =-0.0892-0.0892 0.2677 (   326 PWs)   bands (ev):

     6.9675  10.7154  11.3950  11.5157  11.9337  12.2677  29.9690  34.7120
    36.3260  38.8076

          k = 0.4462 0.0892 0.0892 (   327 PWs)   bands (ev):

     8.9795  10.2021  11.4103  11.9803  12.5803  12.9373  26.8777  30.2432
    30.9871  34.9129

          k =-0.0892-0.4462 0.6247 (   330 PWs)   bands (ev):

     9.9583  10.2310  11.0865  12.0837  12.6912  17.9440  21.1407  24.6972
    26.9993  38.8858

          k = 0.0892-0.2677 0.4462 (   325 PWs)   bands (ev):

     9.6120  10.5686  10.8895  11.7605  12.4180  14.3214  22.8251  28.4861
    31.5361  39.5341

          k =-0.6247 0.0892 0.0892 (   328 PWs)   bands (ev):

     9.4165   9.8403  12.1605  12.4288  12.7525  15.8463  23.6282  25.1554
    28.9087  34.0655

          k = 0.2677 0.2677 0.2677 (   326 PWs)   bands (ev):

     8.7181  11.2056  11.2056  11.7222  12.4897  12.4897  21.7164  37.3415
    37.6043  37.6043

          k =-0.2677-0.2677 0.8031 (   329 PWs)   bands (ev):

     9.9834  10.4897  11.0310  11.7512  12.4659  16.7056  20.0106  25.9420
    32.8538  35.7187

     the Fermi energy is    14.4213 ev

!    total energy              =     -87.83859524 Ry
     estimated scf accuracy    <          8.1E-11 Ry
     smearing contrib. (-TS)   =      -0.00079753 Ry
     internal energy E=F+TS    =     -87.83779771 Ry

     The total energy is F=E-TS. E is the sum of the following terms:
     one-electron contribution =     -10.41033481 Ry
     hartree contribution      =      18.96123021 Ry
     xc contribution           =     -14.05749634 Ry
     ewald contribution        =     -82.33119677 Ry

     convergence has been achieved in   8 iterations


     Computing stress (Cartesian axis) and pressure

          total   stress  (Ry/bohr**3)                   (kbar)     P=       -0.37
  -0.00000252  -0.00000000  -0.00000000           -0.37       -0.00       -0.00
  -0.00000000  -0.00000252  -0.00000000           -0.00       -0.37       -0.00
  -0.00000000  -0.00000000  -0.00000252           -0.00       -0.00       -0.37

     Message from routine punch:
     Nothing written, as per user request (disk_io='none')

     init_run     :      0.57s CPU      0.58s WALL (       2 calls)
     electrons    :      1.89s CPU      2.02s WALL (       6 calls)
     update_pot   :      0.01s CPU      0.01s WALL (       4 calls)
     stress       :      0.76s CPU      0.77s WALL (       6 calls)

     Called by init_run:
     wfcinit      :      0.05s CPU      0.05s WALL (       2 calls)
     potinit      :      0.17s CPU      0.17s WALL (       2 calls)
     hinit0       :      0.30s CPU      0.31s WALL (       2 calls)

     Called by electrons:
     c_bands      :      1.04s CPU      1.13s WALL (      30 calls)
     sum_band     :      0.51s CPU      0.54s WALL (      30 calls)
     v_of_rho     :      0.04s CPU      0.04s WALL (      33 calls)
     newd         :      0.33s CPU      0.33s WALL (      33 calls)
     mix_rho      :      0.02s CPU      0.02s WALL (      30 calls)

     Called by c_bands:
     init_us_2    :      0.04s CPU      0.04s WALL (     680 calls)
     cegterg      :      0.97s CPU      1.06s WALL (     300 calls)

     Called by *egterg:
     cdiaghg      :      0.13s CPU      0.14s WALL (     884 calls)
     h_psi        :      0.74s CPU      0.80s WALL (     974 calls)
     s_psi        :      0.01s CPU      0.01s WALL (     974 calls)
     g_psi        :      0.00s CPU      0.01s WALL (     654 calls)

     Called by h_psi:
     h_psi:calbec :      0.04s CPU      0.04s WALL (     974 calls)
     vloc_psi     :      0.68s CPU      0.73s WALL (     974 calls)
     add_vuspsi   :      0.01s CPU      0.01s WALL (     974 calls)

     General routines
     calbec       :      0.06s CPU      0.07s WALL (    2054 calls)
     fft          :      0.13s CPU      0.13s WALL (     205 calls)
     ffts         :      0.15s CPU      0.15s WALL (      63 calls)
     fftw         :      0.64s CPU      0.68s WALL (   18812 calls)
     interpolate  :      0.16s CPU      0.16s WALL (      33 calls)

     Parallel routines

     PWSCF        :      3.34s CPU      3.52s WALL


   This run was terminated on:  17:29:57  21Oct2025            

=------------------------------------------------------------------------------=
   JOB DONE.
=------------------------------------------------------------------------------=
