
     Program PWSCF v.7.4.1 starts on 20Oct2025 at 17:51:47 

     This program is part of the open-source Quantum ESPRESSO suite
     for quantum simulation of materials; please cite
         "P. Giannozzi et al., J. Phys.:Condens. Matter 21 395502 (2009);
         "P. Giannozzi et al., J. Phys.:Condens. Matter 29 465901 (2017);
         "P. Giannozzi et al., J. Chem. Phys. 152 154105 (2020);
          URL http://www.quantum-espresso.org", 
     in publications or presentations arising from this work. More details at
     http://www.quantum-espresso.org/quote

     Parallel version (MPI), running on     2 processors

     MPI processes distributed on     1 nodes
     276 MiB available memory on the printing compute node when the environment starts

     Waiting for input...
     Reading input from standard input

     Current dimensions of program PWSCF are:
     Max number of different atomic species (ntypx) = 10
     Max number of k-points (npk) =  40000
     Max angular momentum in pseudopotentials (lmaxx) =  4
     file Fe.pbe-nd-rrkjus.UPF: wavefunction(s)  4S renormalized
     Message from routine find_sym:
     Not a group! Trying with lower acceptance parameter...
     Message from routine find_sym:
     Symmetry operations form a group
     Message from routine setup:
     using ibrav=0 with symmetry is DISCOURAGED, use correct ibrav instead

     R & G space division:  proc/nbgrp/npool/nimage =       2
     Subspace diagonalization in iterative solution of the eigenvalue problem:
     a serial algorithm will be used


     Parallelization info
     --------------------
     sticks:   dense  smooth     PW     G-vecs:    dense   smooth      PW
     Min         273     105     36                 7823     1983     379
     Max         274     106     37                 7826     1986     380
     Sum         547     211     73                15649     3969     759

     Using Slab Decomposition



     bravais-lattice index     =            0
     lattice parameter (alat)  =       5.1023  a.u.
     unit-cell volume          =     178.9386 (a.u.)^3
     number of atoms/cell      =            2
     number of atomic types    =            1
     number of electrons       =        16.00
     number of Kohn-Sham states=           12
     kinetic-energy cutoff     =      30.0000  Ry
     charge density cutoff     =     300.0000  Ry
     scf convergence threshold =      1.0E-07
     mixing beta               =       0.5000
     number of iterations used =            8  plain     mixing
     energy convergence thresh.=      1.0E-04
     force convergence thresh. =      1.0E-03
     press convergence thresh. =      5.0E-01
     Exchange-correlation=  SLA  PW   PBE  PBE
                           (   1   4   3   4   0   0   0)
     nstep                     =           50


     celldm(1)=   5.102261  celldm(2)=   0.000000  celldm(3)=   0.000000
     celldm(4)=   0.000000  celldm(5)=   0.000000  celldm(6)=   0.000000

     crystal axes: (cart. coord. in units of alat)
               a(1) = (   1.000000   0.000000   0.000000 )  
               a(2) = (  -0.500000   0.866025   0.000000 )  
               a(3) = (   0.000000   0.000000   1.555556 )  

     reciprocal axes: (cart. coord. in units 2 pi/alat)
               b(1) = (  1.000000  0.577350 -0.000000 )  
               b(2) = (  0.000000  1.154701  0.000000 )  
               b(3) = (  0.000000 -0.000000  0.642857 )  


     PseudoPot. # 1 for Fe read from file:
     /home/bond/Software/QE/qe-7.4.1/pseudo/Fe.pbe-nd-rrkjus.UPF
     MD5 check sum: 398036227a04b607635f6f5e8dfd8242
     Pseudo is Ultrasoft + core correction, Zval =  8.0
     Generated by new atomic code, or converted to UPF format
     Using radial grid of  957 points,  6 beta functions with: 
                l(1) =   0
                l(2) =   0
                l(3) =   1
                l(4) =   1
                l(5) =   2
                l(6) =   2
     Q(r) pseudized with 0 coefficients 


     atomic species   valence    mass     pseudopotential
     Fe                8.00    55.84500     Fe( 1.00)

     Starting magnetic structure 
     atomic species   magnetization
     Fe              0.700

      4 Sym. Ops. (no inversion) found



   Cartesian axes

     site n.     atom                  positions (alat units)
         1        Fe     tau(   1) = (   0.0000000   0.0000000   0.0000000  )
         2        Fe     tau(   2) = (   0.0000000   0.5773519   0.7777778  )

     number of k points=    18  Methfessel-Paxton smearing, width (Ry)=  0.0200
                       cart. coord. in units 2pi/alat
        k(    1) = (   0.0000000   0.0000000   0.0000000), wk =   0.0200000
        k(    2) = (   0.0000000   0.0000000  -0.3214286), wk =   0.0200000
        k(    3) = (   0.0000000   0.2309401   0.0000000), wk =   0.0400000
        k(    4) = (   0.0000000   0.2309401  -0.3214286), wk =   0.0400000
        k(    5) = (   0.0000000   0.4618802   0.0000000), wk =   0.0400000
        k(    6) = (   0.0000000   0.4618802  -0.3214286), wk =   0.0400000
        k(    7) = (   0.2000000   0.3464102   0.0000000), wk =   0.0800000
        k(    8) = (   0.2000000   0.3464102  -0.3214286), wk =   0.0800000
        k(    9) = (   0.2000000   0.5773503   0.0000000), wk =   0.0400000
        k(   10) = (   0.2000000   0.5773503  -0.3214286), wk =   0.0400000
        k(   11) = (   0.2000000  -0.1154701   0.0000000), wk =   0.0800000
        k(   12) = (   0.2000000  -0.1154701  -0.3214286), wk =   0.0800000
        k(   13) = (   0.4000000  -0.2309401   0.0000000), wk =   0.0800000
        k(   14) = (   0.4000000  -0.2309401  -0.3214286), wk =   0.0800000
        k(   15) = (   0.4000000  -0.0000000   0.0000000), wk =   0.0400000
        k(   16) = (   0.4000000  -0.0000000   0.3214286), wk =   0.0400000
        k(   17) = (   0.4000000  -0.4618802   0.0000000), wk =   0.0800000
        k(   18) = (   0.4000000  -0.4618802  -0.3214286), wk =   0.0800000

     Dense  grid:    15649 G-vectors     FFT dimensions: (  30,  30,  45)

     Smooth grid:     3969 G-vectors     FFT dimensions: (  18,  18,  27)

     Estimated max dynamical RAM per process >      36.59 MB

     Estimated total dynamical RAM >      73.18 MB

     Check: negative core charge=   -0.000008
     Generating pointlists ...
     new r_m :   0.3996 (alat units)  2.0387 (a.u.) for type    1

     Initial potential from superposition of free atoms

     starting charge      15.9987, renormalised to      16.0000
     Starting wfcs are   12 randomized atomic wfcs

     total cpu time spent up to now is        0.7 secs

     Self-consistent Calculation

     iteration #  1     ecut=    30.00 Ry     beta= 0.50
     Davidson diagonalization with overlap
     ethr =  1.00E-02,  avg # of iterations =  3.6

     total cpu time spent up to now is        1.1 secs

     total energy              =    -111.36358804 Ry
     estimated scf accuracy    <       0.56580160 Ry

     total magnetization       =     6.54 Bohr mag/cell
     absolute magnetization    =     6.54 Bohr mag/cell

     iteration #  2     ecut=    30.00 Ry     beta= 0.50
     Davidson diagonalization with overlap
     ethr =  3.54E-03,  avg # of iterations =  2.0

     total cpu time spent up to now is        1.4 secs

     total energy              =    -111.53767097 Ry
     estimated scf accuracy    <       0.04541245 Ry

     total magnetization       =     6.29 Bohr mag/cell
     absolute magnetization    =     6.30 Bohr mag/cell

     iteration #  3     ecut=    30.00 Ry     beta= 0.50
     Davidson diagonalization with overlap
     ethr =  2.84E-04,  avg # of iterations =  2.1

     total cpu time spent up to now is        1.7 secs

     total energy              =    -111.56002819 Ry
     estimated scf accuracy    <       0.00683931 Ry

     total magnetization       =     6.30 Bohr mag/cell
     absolute magnetization    =     6.33 Bohr mag/cell

     iteration #  4     ecut=    30.00 Ry     beta= 0.50
     Davidson diagonalization with overlap
     ethr =  4.27E-05,  avg # of iterations =  2.9

     total cpu time spent up to now is        2.0 secs

     total energy              =    -111.55922882 Ry
     estimated scf accuracy    <       0.09941581 Ry

     total magnetization       =     6.09 Bohr mag/cell
     absolute magnetization    =     6.18 Bohr mag/cell

     iteration #  5     ecut=    30.00 Ry     beta= 0.50
     Davidson diagonalization with overlap
     ethr =  4.27E-05,  avg # of iterations =  1.2

     total cpu time spent up to now is        2.3 secs

     total energy              =    -111.56466413 Ry
     estimated scf accuracy    <       0.00065657 Ry

     total magnetization       =     6.03 Bohr mag/cell
     absolute magnetization    =     6.14 Bohr mag/cell

     iteration #  6     ecut=    30.00 Ry     beta= 0.50
     Davidson diagonalization with overlap
     ethr =  4.10E-06,  avg # of iterations =  3.4

     total cpu time spent up to now is        2.6 secs

     total energy              =    -111.56557895 Ry
     estimated scf accuracy    <       0.00040805 Ry

     total magnetization       =     5.85 Bohr mag/cell
     absolute magnetization    =     6.01 Bohr mag/cell

     iteration #  7     ecut=    30.00 Ry     beta= 0.50
     Davidson diagonalization with overlap
     ethr =  2.55E-06,  avg # of iterations =  2.6

     total cpu time spent up to now is        2.9 secs

     total energy              =    -111.56590040 Ry
     estimated scf accuracy    <       0.00045145 Ry

     total magnetization       =     5.80 Bohr mag/cell
     absolute magnetization    =     5.98 Bohr mag/cell

     iteration #  8     ecut=    30.00 Ry     beta= 0.50
     Davidson diagonalization with overlap
     ethr =  2.55E-06,  avg # of iterations =  1.6

     total cpu time spent up to now is        3.2 secs

     total energy              =    -111.56625195 Ry
     estimated scf accuracy    <       0.00013975 Ry

     total magnetization       =     5.65 Bohr mag/cell
     absolute magnetization    =     5.88 Bohr mag/cell

     iteration #  9     ecut=    30.00 Ry     beta= 0.50
     Davidson diagonalization with overlap
     ethr =  8.73E-07,  avg # of iterations =  2.5

     total cpu time spent up to now is        3.5 secs

     total energy              =    -111.56643513 Ry
     estimated scf accuracy    <       0.00005270 Ry

     total magnetization       =     5.54 Bohr mag/cell
     absolute magnetization    =     5.82 Bohr mag/cell

     iteration # 10     ecut=    30.00 Ry     beta= 0.50
     Davidson diagonalization with overlap
     ethr =  3.29E-07,  avg # of iterations =  2.1

     total cpu time spent up to now is        3.7 secs

     total energy              =    -111.56645915 Ry
     estimated scf accuracy    <       0.00000238 Ry

     total magnetization       =     5.51 Bohr mag/cell
     absolute magnetization    =     5.79 Bohr mag/cell

     iteration # 11     ecut=    30.00 Ry     beta= 0.50
     Davidson diagonalization with overlap
     ethr =  1.49E-08,  avg # of iterations =  6.3

     total cpu time spent up to now is        4.2 secs

     total energy              =    -111.56646782 Ry
     estimated scf accuracy    <       0.00000033 Ry

     total magnetization       =     5.50 Bohr mag/cell
     absolute magnetization    =     5.78 Bohr mag/cell

     iteration # 12     ecut=    30.00 Ry     beta= 0.50
     Davidson diagonalization with overlap
     ethr =  2.07E-09,  avg # of iterations =  5.1

     Magnetic moment per site  (integrated on atomic sphere of radius R)
     atom   1 (R=0.400)  charge=  6.6312  magn=  2.8091
     atom   2 (R=0.400)  charge=  6.6307  magn=  2.8093

     total cpu time spent up to now is        4.6 secs

     End of self-consistent calculation

 ------ SPIN UP ------------


          k = 0.0000 0.0000 0.0000 (   523 PWs)   bands (ev):

     3.4383   6.7826   8.7751   8.7751   9.0715   9.0715   9.0766   9.3026
     9.3026  10.3659  10.3660  11.7553

          k = 0.0000 0.0000-0.3214 (   494 PWs)   bands (ev):

     5.5037   5.5042   8.6884   8.6884   8.6893   8.6893   8.8074   8.8087
    10.0849  10.0850  10.0859  10.0859

          k = 0.0000 0.2309 0.0000 (   514 PWs)   bands (ev):

     4.5894   7.2971   8.3139   8.5279   8.9160   9.0252   9.2663   9.3726
     9.4918   9.5443  10.4853  14.4370

          k = 0.0000 0.2309-0.3214 (   510 PWs)   bands (ev):

     6.3776   6.3780   8.2337   8.2344   8.8035   8.8048   9.0565   9.0569
    10.0592  10.0597  10.5752  10.5756

          k = 0.0000 0.4619 0.0000 (   488 PWs)   bands (ev):

     6.7361   7.1846   7.4920   8.6653   8.6658   9.0907   9.2443  10.1392
    10.2817  10.5938  10.9727  15.9507

          k = 0.0000 0.4619-0.3214 (   494 PWs)   bands (ev):

     6.8918   6.8918   8.0218   8.0225   9.4569   9.4581   9.9316   9.9328
    10.2925  10.2938  11.8717  11.8718

          k = 0.2000 0.3464 0.0000 (   489 PWs)   bands (ev):

     6.4538   7.7110   7.7424   7.8254   8.6358   9.0216   9.1707   9.7872
    10.1348  10.5173  10.6753  17.4595

          k = 0.2000 0.3464-0.3214 (   504 PWs)   bands (ev):

     7.1815   7.1818   8.2498   8.2510   8.6219   8.6228   9.3312   9.3319
    10.4510  10.4518  11.6925  11.6926

          k = 0.2000 0.5774 0.0000 (   486 PWs)   bands (ev):

     7.3956   7.4403   7.4544   8.3008   8.5818   8.8905   9.3657  10.2777
    10.4343  10.5183  13.3785  14.4556

          k = 0.2000 0.5774-0.3214 (   484 PWs)   bands (ev):

     7.3352   7.3354   8.1529   8.1536   8.8197   8.8199   9.5856   9.5862
    10.4672  10.4680  14.4728  14.4734

          k = 0.2000-0.1155 0.0000 (   514 PWs)   bands (ev):

     4.5894   7.2971   8.3139   8.5279   8.9160   9.0252   9.2663   9.3727
     9.4918   9.5443  10.4853  14.4370

          k = 0.2000-0.1155-0.3214 (   510 PWs)   bands (ev):

     6.3776   6.3780   8.2337   8.2344   8.8035   8.8048   9.0564   9.0569
    10.0592  10.0596  10.5752  10.5757

          k = 0.4000-0.2309 0.0000 (   488 PWs)   bands (ev):

     6.7361   7.1846   7.4920   8.6653   8.6658   9.0907   9.2443  10.1392
    10.2817  10.5938  10.9727  15.9507

          k = 0.4000-0.2309-0.3214 (   494 PWs)   bands (ev):

     6.8917   6.8918   8.0218   8.0225   9.4569   9.4580   9.9316   9.9328
    10.2925  10.2937  11.8717  11.8718

          k = 0.4000-0.0000 0.0000 (   489 PWs)   bands (ev):

     6.4538   7.7110   7.7424   7.8254   8.6358   9.0216   9.1707   9.7872
    10.1348  10.5173  10.6753  17.4594

          k = 0.4000-0.0000 0.3214 (   504 PWs)   bands (ev):

     7.1815   7.1818   8.2498   8.2510   8.6219   8.6228   9.3312   9.3319
    10.4510  10.4518  11.6925  11.6927

          k = 0.4000-0.4619 0.0000 (   486 PWs)   bands (ev):

     7.3956   7.4403   7.4544   8.3008   8.5818   8.8905   9.3657  10.2777
    10.4343  10.5183  13.3785  14.4556

          k = 0.4000-0.4619-0.3214 (   484 PWs)   bands (ev):

     7.3352   7.3354   8.1529   8.1536   8.8197   8.8199   9.5856   9.5862
    10.4672  10.4680  14.4728  14.4734

 ------ SPIN DOWN ----------


          k = 0.0000 0.0000 0.0000 (   523 PWs)   bands (ev):

     3.6074   8.4767  11.6904  11.6904  11.7830  11.9038  12.0902  12.0902
    12.3449  12.3449  13.6114  13.6114

          k = 0.0000 0.0000-0.3214 (   494 PWs)   bands (ev):

     5.7914   5.7918  11.2113  11.2115  11.5907  11.5907  11.5908  11.5908
    13.3094  13.3094  13.3094  13.3094

          k = 0.0000 0.2309 0.0000 (   514 PWs)   bands (ev):

     4.7760   9.1754  10.5305  10.9174  11.7805  11.9794  12.0737  12.2870
    12.4956  12.5954  13.7720  15.9282

          k = 0.0000 0.2309-0.3214 (   510 PWs)   bands (ev):

     6.7853   6.7856  10.7742  10.7742  11.4781  11.4782  12.0121  12.0122
    13.2796  13.2796  13.5763  13.5764

          k = 0.0000 0.4619 0.0000 (   488 PWs)   bands (ev):

     7.5818   9.4128   9.6325  10.2282  11.5174  11.7069  11.9707  13.4115
    13.5721  13.7814  13.9109  17.4368

          k = 0.0000 0.4619-0.3214 (   494 PWs)   bands (ev):

     8.4629   8.4630  10.3911  10.3912  11.8412  11.8412  12.4585  12.4585
    13.5968  13.5970  14.0666  14.0666

          k = 0.2000 0.3464 0.0000 (   489 PWs)   bands (ev):

     6.8339   9.7996   9.8734  10.1532  11.3820  11.8056  11.8962  12.8306
    13.3035  13.6937  13.8108  18.7153

          k = 0.2000 0.3464-0.3214 (   504 PWs)   bands (ev):

     8.2918   8.2920  10.4965  10.4966  11.1621  11.1622  12.3145  12.3145
    13.7107  13.7108  14.1056  14.1056

          k = 0.2000 0.5774 0.0000 (   486 PWs)   bands (ev):

     9.0067   9.5314   9.6502   9.8022  11.2833  11.4769  12.2298  13.4833
    13.6650  13.8109  15.3189  16.3176

          k = 0.2000 0.5774-0.3214 (   484 PWs)   bands (ev):

     9.2592   9.2592  10.5558  10.5559  10.8857  10.8857  12.5551  12.5552
    13.6358  13.6359  15.9249  15.9250

          k = 0.2000-0.1155 0.0000 (   514 PWs)   bands (ev):

     4.7760   9.1754  10.5305  10.9174  11.7805  11.9794  12.0736  12.2870
    12.4956  12.5954  13.7720  15.9282

          k = 0.2000-0.1155-0.3214 (   510 PWs)   bands (ev):

     6.7853   6.7856  10.7742  10.7742  11.4781  11.4782  12.0121  12.0122
    13.2796  13.2797  13.5763  13.5764

          k = 0.4000-0.2309 0.0000 (   488 PWs)   bands (ev):

     7.5818   9.4128   9.6325  10.2282  11.5174  11.7069  11.9707  13.4116
    13.5721  13.7814  13.9109  17.4368

          k = 0.4000-0.2309-0.3214 (   494 PWs)   bands (ev):

     8.4629   8.4630  10.3911  10.3912  11.8411  11.8412  12.4585  12.4585
    13.5968  13.5970  14.0666  14.0666

          k = 0.4000-0.0000 0.0000 (   489 PWs)   bands (ev):

     6.8339   9.7996   9.8734  10.1532  11.3820  11.8056  11.8963  12.8306
    13.3035  13.6937  13.8108  18.7153

          k = 0.4000-0.0000 0.3214 (   504 PWs)   bands (ev):

     8.2918   8.2920  10.4965  10.4966  11.1621  11.1622  12.3145  12.3145
    13.7107  13.7108  14.1056  14.1056

          k = 0.4000-0.4619 0.0000 (   486 PWs)   bands (ev):

     9.0068   9.5314   9.6502   9.8022  11.2833  11.4769  12.2298  13.4833
    13.6650  13.8109  15.3190  16.3176

          k = 0.4000-0.4619-0.3214 (   484 PWs)   bands (ev):

     9.2592   9.2592  10.5558  10.5559  10.8857  10.8857  12.5551  12.5552
    13.6358  13.6359  15.9249  15.9250

     the Fermi energy is    11.6467 ev

!    total energy              =    -111.56646868 Ry
     estimated scf accuracy    <       0.00000005 Ry
     smearing contrib. (-TS)   =      -0.00026541 Ry
     internal energy E=F+TS    =    -111.56620326 Ry

     The total energy is F=E-TS. E is the sum of the following terms:
     one-electron contribution =       9.07970081 Ry
     hartree contribution      =      14.83049591 Ry
     xc contribution           =     -52.84803594 Ry
     ewald contribution        =     -82.62836405 Ry

     total magnetization       =     5.50 Bohr mag/cell
     absolute magnetization    =     5.79 Bohr mag/cell

     convergence has been achieved in  12 iterations

     Forces acting on atoms (cartesian axes, Ry/au):

     atom    1 type  1   force =     0.00000000    0.00000778    0.00000000
     atom    2 type  1   force =     0.00000000   -0.00000778    0.00000000

     Total force =     0.000011     Total SCF correction =     0.000005
     SCF correction compared to forces is large: reduce conv_thr to get better values


     Computing stress (Cartesian axis) and pressure

          total   stress  (Ry/bohr**3)                   (kbar)     P=     -103.02
  -0.00087539   0.00000000   0.00000000         -128.77        0.00        0.00
   0.00000000  -0.00087540   0.00000000            0.00     -128.78        0.00
   0.00000000   0.00000000  -0.00035018            0.00        0.00      -51.51


     BFGS Geometry Optimization
     Energy error            =      7.7E-03 Ry
     Gradient error          =      7.8E-06 Ry/Bohr
     Cell gradient error     =      1.3E+02 kbar

     number of scf cycles    =   1
     number of bfgs steps    =   0

     enthalpy           new  =    -111.5664686780 Ry

     new trust radius        =       0.0585500790 bohr
     new conv_thr            =       0.0000001000 Ry

     new unit-cell volume =    169.69350 a.u.^3 (    25.14598 Ang^3 )
     density =      7.37556 g/cm^3

CELL_PARAMETERS (angstrom)
   2.640911038   0.000000000   0.000000000
  -1.320455519   2.287095710   0.000000000
   0.000000000   0.000000000   4.163230942

ATOMIC_POSITIONS (angstrom)
Fe               0.0000000000        0.0000040260        0.0000000000
Fe               0.0000000000        1.5247306272        2.0816154710


     Message from routine punch:
     Nothing written, as per user request (disk_io='none')
     NEW-OLD atomic charge density approx. for the potential
     New effective cutoffs (rho, wfc):  313.43   31.33

     Check: negative core charge=   -0.000005
     Generating pointlists ...
     new r_m :   0.3942 (alat units)  2.0114 (a.u.) for type    1

     total cpu time spent up to now is        5.0 secs

     Self-consistent Calculation

     iteration #  1     ecut=    30.00 Ry     beta= 0.50
     Davidson diagonalization with overlap
     ethr =  1.00E-06,  avg # of iterations =  6.1

     total cpu time spent up to now is        5.5 secs

     total energy              =    -111.57209980 Ry
     estimated scf accuracy    <       0.00062948 Ry

     total magnetization       =     5.35 Bohr mag/cell
     absolute magnetization    =     5.64 Bohr mag/cell

     iteration #  2     ecut=    30.00 Ry     beta= 0.50
     Davidson diagonalization with overlap
     ethr =  3.93E-06,  avg # of iterations =  1.2

     total cpu time spent up to now is        5.8 secs

     total energy              =    -111.57210653 Ry
     estimated scf accuracy    <       0.00044626 Ry

     total magnetization       =     5.33 Bohr mag/cell
     absolute magnetization    =     5.63 Bohr mag/cell

     iteration #  3     ecut=    30.00 Ry     beta= 0.50
     Davidson diagonalization with overlap
     ethr =  2.79E-06,  avg # of iterations =  2.0

     total cpu time spent up to now is        6.1 secs

     total energy              =    -111.57199740 Ry
     estimated scf accuracy    <       0.00515085 Ry

     total magnetization       =     5.33 Bohr mag/cell
     absolute magnetization    =     5.62 Bohr mag/cell

     iteration #  4     ecut=    30.00 Ry     beta= 0.50
     Davidson diagonalization with overlap
     ethr =  2.79E-06,  avg # of iterations =  1.4

     total cpu time spent up to now is        6.3 secs

     total energy              =    -111.57231089 Ry
     estimated scf accuracy    <       0.00006037 Ry

     total magnetization       =     5.32 Bohr mag/cell
     absolute magnetization    =     5.60 Bohr mag/cell

     iteration #  5     ecut=    30.00 Ry     beta= 0.50
     Davidson diagonalization with overlap
     ethr =  3.77E-07,  avg # of iterations =  2.0

     total cpu time spent up to now is        6.6 secs

     total energy              =    -111.57232639 Ry
     estimated scf accuracy    <       0.00000280 Ry

     total magnetization       =     5.32 Bohr mag/cell
     absolute magnetization    =     5.59 Bohr mag/cell

     iteration #  6     ecut=    30.00 Ry     beta= 0.50
     Davidson diagonalization with overlap
     ethr =  1.75E-08,  avg # of iterations =  3.6

     total cpu time spent up to now is        6.9 secs

     total energy              =    -111.57232866 Ry
     estimated scf accuracy    <       0.00000058 Ry

     total magnetization       =     5.32 Bohr mag/cell
     absolute magnetization    =     5.59 Bohr mag/cell

     iteration #  7     ecut=    30.00 Ry     beta= 0.50
     Davidson diagonalization with overlap
     ethr =  3.65E-09,  avg # of iterations =  4.2

     total cpu time spent up to now is        7.3 secs

     total energy              =    -111.57232948 Ry
     estimated scf accuracy    <       0.00000012 Ry

     total magnetization       =     5.32 Bohr mag/cell
     absolute magnetization    =     5.59 Bohr mag/cell

     iteration #  8     ecut=    30.00 Ry     beta= 0.50
     Davidson diagonalization with overlap
     ethr =  7.22E-10,  avg # of iterations =  3.4

     Magnetic moment per site  (integrated on atomic sphere of radius R)
     atom   1 (R=0.394)  charge=  6.6231  magn=  2.7139
     atom   2 (R=0.394)  charge=  6.6225  magn=  2.7139

     total cpu time spent up to now is        7.6 secs

     End of self-consistent calculation

 ------ SPIN UP ------------


          k = 0.0000 0.0000 0.0000 (   523 PWs)   bands (ev):

     3.9877   7.4032   9.6059   9.6059   9.8250   9.9180   9.9180  10.1952
    10.1952  11.3027  11.3027  12.4377

          k = 0.0000 0.0000-0.3243 (   494 PWs)   bands (ev):

     6.0916   6.0917   9.5248   9.5248   9.5250   9.5250   9.5414   9.5417
    11.0043  11.0043  11.0045  11.0045

          k = 0.0000 0.2361 0.0000 (   514 PWs)   bands (ev):

     5.1947   7.9708   9.0882   9.2799   9.7212   9.8922  10.1488  10.2025
    10.3600  10.3870  11.4272  15.3650

          k = 0.0000 0.2361-0.3243 (   510 PWs)   bands (ev):

     7.0091   7.0092   8.9819   8.9820   9.5911   9.5914   9.9315   9.9316
    10.9777  10.9778  11.5025  11.5026

          k = 0.0000 0.4722 0.0000 (   488 PWs)   bands (ev):

     7.4050   7.8564   8.1547   9.4515   9.5008   9.8805  10.0411  11.1227
    11.2670  11.5357  11.9436  17.1303

          k = 0.0000 0.4722-0.3243 (   494 PWs)   bands (ev):

     7.5346   7.5346   8.7306   8.7307  10.3450  10.3453  10.8094  10.8097
    11.2743  11.2746  12.8051  12.8051

          k = 0.2045 0.3542 0.0000 (   489 PWs)   bands (ev):

     7.1375   8.4338   8.4356   8.5535   9.4342   9.8270  10.0014  10.6397
    11.0948  11.4449  11.6750  18.5220

          k = 0.2045 0.3542-0.3243 (   504 PWs)   bands (ev):

     7.8473   7.8474   9.0090   9.0093   9.3850   9.3852  10.2036  10.2037
    11.4163  11.4165  12.6673  12.6673

          k = 0.2045 0.5903 0.0000 (   486 PWs)   bands (ev):

     8.0703   8.1355   8.1720   9.0708   9.3771   9.6737  10.1951  11.2140
    11.3915  11.4359  14.4747  15.6686

          k = 0.2045 0.5903-0.3243 (   484 PWs)   bands (ev):

     8.0091   8.0091   8.8866   8.8868   9.6160   9.6161  10.4777  10.4778
    11.4159  11.4161  15.5436  15.5437

          k = 0.2045-0.1181 0.0000 (   514 PWs)   bands (ev):

     5.1947   7.9708   9.0882   9.2799   9.7212   9.8922  10.1488  10.2025
    10.3600  10.3870  11.4272  15.3650

          k = 0.2045-0.1181-0.3243 (   510 PWs)   bands (ev):

     7.0091   7.0092   8.9819   8.9820   9.5911   9.5914   9.9316   9.9317
    10.9777  10.9778  11.5025  11.5026

          k = 0.4089-0.2361 0.0000 (   488 PWs)   bands (ev):

     7.4050   7.8564   8.1547   9.4515   9.5008   9.8805  10.0411  11.1227
    11.2670  11.5357  11.9436  17.1303

          k = 0.4089-0.2361-0.3243 (   494 PWs)   bands (ev):

     7.5346   7.5346   8.7306   8.7307  10.3450  10.3453  10.8094  10.8097
    11.2743  11.2746  12.8051  12.8051

          k = 0.4089-0.0000 0.0000 (   489 PWs)   bands (ev):

     7.1375   8.4338   8.4356   8.5535   9.4342   9.8270  10.0014  10.6397
    11.0948  11.4449  11.6750  18.5220

          k = 0.4089-0.0000 0.3243 (   504 PWs)   bands (ev):

     7.8473   7.8474   9.0090   9.0093   9.3850   9.3852  10.2036  10.2037
    11.4163  11.4165  12.6673  12.6673

          k = 0.4089-0.4722 0.0000 (   486 PWs)   bands (ev):

     8.0703   8.1355   8.1720   9.0708   9.3771   9.6738  10.1951  11.2140
    11.3915  11.4359  14.4747  15.6686

          k = 0.4089-0.4722-0.3243 (   484 PWs)   bands (ev):

     8.0091   8.0091   8.8866   8.8868   9.6160   9.6161  10.4777  10.4778
    11.4159  11.4161  15.5436  15.5437

 ------ SPIN DOWN ----------


          k = 0.0000 0.0000 0.0000 (   523 PWs)   bands (ev):

     4.1507   9.0318  12.4258  12.4258  12.4626  12.5615  12.8381  12.8381
    13.1571  13.1571  14.4610  14.4610

          k = 0.0000 0.0000-0.3243 (   494 PWs)   bands (ev):

     6.3747   6.3748  11.8518  11.8519  12.3361  12.3361  12.3361  12.3362
    14.1380  14.1380  14.1380  14.1380

          k = 0.0000 0.2361 0.0000 (   514 PWs)   bands (ev):

     5.3766   9.7799  11.1529  11.5988  12.4844  12.7648  12.8357  13.0730
    13.2184  13.3926  14.6262  16.8749

          k = 0.0000 0.2361-0.3243 (   510 PWs)   bands (ev):

     7.4081   7.4082  11.4274  11.4275  12.1726  12.1727  12.7986  12.7987
    14.1050  14.1050  14.4194  14.4194

          k = 0.0000 0.4722 0.0000 (   488 PWs)   bands (ev):

     8.2584   9.9945  10.1976  10.9535  12.2702  12.4023  12.6696  14.2993
    14.4609  14.6563  14.7633  18.5727

          k = 0.0000 0.4722-0.3243 (   494 PWs)   bands (ev):

     9.0570   9.0571  11.0269  11.0270  12.6226  12.6227  13.2625  13.2626
    14.4823  14.4823  14.9526  14.9526

          k = 0.2045 0.3542 0.0000 (   489 PWs)   bands (ev):

     7.5143  10.4526  10.4594  10.7937  12.0910  12.5053  12.6466  13.5875
    14.1709  14.6012  14.6466  19.7824

          k = 0.2045 0.3542-0.3243 (   504 PWs)   bands (ev):

     8.9347   8.9348  11.1625  11.1626  11.8347  11.8348  13.0972  13.0973
    14.5869  14.5869  15.0078  15.0079

          k = 0.2045 0.5903 0.0000 (   486 PWs)   bands (ev):

     9.6869  10.1522  10.2281  10.5167  11.9914  12.1646  12.9505  14.3218
    14.5315  14.6344  16.3753  17.4733

          k = 0.2045 0.5903-0.3243 (   484 PWs)   bands (ev):

     9.8592   9.8592  11.2130  11.2130  11.6001  11.6002  13.3406  13.3407
    14.5054  14.5055  16.9845  16.9845

          k = 0.2045-0.1181 0.0000 (   514 PWs)   bands (ev):

     5.3766   9.7799  11.1529  11.5988  12.4844  12.7648  12.8357  13.0730
    13.2184  13.3926  14.6262  16.8749

          k = 0.2045-0.1181-0.3243 (   510 PWs)   bands (ev):

     7.4081   7.4082  11.4274  11.4275  12.1726  12.1727  12.7986  12.7987
    14.1050  14.1050  14.4194  14.4194

          k = 0.4089-0.2361 0.0000 (   488 PWs)   bands (ev):

     8.2584   9.9945  10.1976  10.9535  12.2702  12.4023  12.6696  14.2993
    14.4609  14.6563  14.7633  18.5727

          k = 0.4089-0.2361-0.3243 (   494 PWs)   bands (ev):

     9.0570   9.0571  11.0269  11.0270  12.6226  12.6227  13.2625  13.2626
    14.4823  14.4823  14.9526  14.9526

          k = 0.4089-0.0000 0.0000 (   489 PWs)   bands (ev):

     7.5143  10.4526  10.4594  10.7937  12.0910  12.5053  12.6466  13.5875
    14.1709  14.6012  14.6466  19.7824

          k = 0.4089-0.0000 0.3243 (   504 PWs)   bands (ev):

     8.9347   8.9348  11.1625  11.1626  11.8347  11.8348  13.0972  13.0973
    14.5869  14.5869  15.0078  15.0079

          k = 0.4089-0.4722 0.0000 (   486 PWs)   bands (ev):

     9.6869  10.1522  10.2281  10.5167  11.9914  12.1646  12.9505  14.3218
    14.5315  14.6344  16.3752  17.4733

          k = 0.4089-0.4722-0.3243 (   484 PWs)   bands (ev):

     9.8592   9.8592  11.2130  11.2130  11.6001  11.6002  13.3406  13.3407
    14.5054  14.5055  16.9845  16.9845

     the Fermi energy is    12.4069 ev

!    total energy              =    -111.57232956 Ry
     estimated scf accuracy    <       0.00000001 Ry
     smearing contrib. (-TS)   =       0.00073932 Ry
     internal energy E=F+TS    =    -111.57306889 Ry

     The total energy is F=E-TS. E is the sum of the following terms:
     one-electron contribution =      11.18705387 Ry
     hartree contribution      =      14.25021156 Ry
     xc contribution           =     -52.89514036 Ry
     ewald contribution        =     -84.11519396 Ry

     total magnetization       =     5.32 Bohr mag/cell
     absolute magnetization    =     5.59 Bohr mag/cell

     convergence has been achieved in   8 iterations

     Forces acting on atoms (cartesian axes, Ry/au):

     atom    1 type  1   force =     0.00000000    0.00000051    0.00000000
     atom    2 type  1   force =     0.00000000   -0.00000051    0.00000000

     Total force =     0.000001     Total SCF correction =     0.000002
     SCF correction compared to forces is large: reduce conv_thr to get better values


     Computing stress (Cartesian axis) and pressure

          total   stress  (Ry/bohr**3)                   (kbar)     P=      -48.94
  -0.00050382   0.00000000   0.00000000          -74.11        0.00        0.00
   0.00000000  -0.00050378   0.00000000            0.00      -74.11        0.00
   0.00000000   0.00000000   0.00000955            0.00        0.00        1.41

     Energy error            =      5.9E-03 Ry
     Gradient error          =      5.1E-07 Ry/Bohr
     Cell gradient error     =      7.4E+01 kbar

     number of scf cycles    =   2
     number of bfgs steps    =   1

     enthalpy           old  =    -111.5664686780 Ry
     enthalpy           new  =    -111.5723295604 Ry

     CASE: enthalpy          _new < enthalpy          _old

     new trust radius        =       0.0728211819 bohr
     new conv_thr            =       0.0000000010 Ry

     new unit-cell volume =    160.27563 a.u.^3 (    23.75040 Ang^3 )
     density =      7.80895 g/cm^3

CELL_PARAMETERS (angstrom)
   2.567095312   0.000000000   0.000000000
  -1.283547656   2.223173260   0.000000000
   0.000000000   0.000000000   4.161554589

ATOMIC_POSITIONS (angstrom)
Fe               0.0000000000        0.0000048242        0.0000000000
Fe               0.0000000000        1.4821147456        2.0807772945


     Message from routine punch:
     Nothing written, as per user request (disk_io='none')
     NEW-OLD atomic charge density approx. for the potential
     New effective cutoffs (rho, wfc):  331.68   33.12

     Check: negative core charge=   -0.000002
     Generating pointlists ...

     total cpu time spent up to now is        8.1 secs

     Self-consistent Calculation

     iteration #  1     ecut=    30.00 Ry     beta= 0.50
     Davidson diagonalization with overlap
     ethr =  1.00E-06,  avg # of iterations =  6.8

     total cpu time spent up to now is        8.6 secs

     total energy              =    -111.57365354 Ry
     estimated scf accuracy    <       0.00026285 Ry

     total magnetization       =     5.35 Bohr mag/cell
     absolute magnetization    =     5.59 Bohr mag/cell

     iteration #  2     ecut=    30.00 Ry     beta= 0.50
     Davidson diagonalization with overlap
     ethr =  1.64E-06,  avg # of iterations =  1.1

     total cpu time spent up to now is        8.9 secs

     total energy              =    -111.57367542 Ry
     estimated scf accuracy    <       0.00014774 Ry

     total magnetization       =     5.35 Bohr mag/cell
     absolute magnetization    =     5.58 Bohr mag/cell

     iteration #  3     ecut=    30.00 Ry     beta= 0.50
     Davidson diagonalization with overlap
     ethr =  9.23E-07,  avg # of iterations =  2.3

     total cpu time spent up to now is        9.2 secs

     total energy              =    -111.57362849 Ry
     estimated scf accuracy    <       0.00210601 Ry

     total magnetization       =     5.35 Bohr mag/cell
     absolute magnetization    =     5.57 Bohr mag/cell

     iteration #  4     ecut=    30.00 Ry     beta= 0.50
     Davidson diagonalization with overlap
     ethr =  9.23E-07,  avg # of iterations =  2.1

     total cpu time spent up to now is        9.5 secs

     total energy              =    -111.57376252 Ry
     estimated scf accuracy    <       0.00000536 Ry

     total magnetization       =     5.35 Bohr mag/cell
     absolute magnetization    =     5.57 Bohr mag/cell

     iteration #  5     ecut=    30.00 Ry     beta= 0.50
     Davidson diagonalization with overlap
     ethr =  3.35E-08,  avg # of iterations =  4.3

     total cpu time spent up to now is        9.8 secs

     total energy              =    -111.57376848 Ry
     estimated scf accuracy    <       0.00000284 Ry

     total magnetization       =     5.35 Bohr mag/cell
     absolute magnetization    =     5.57 Bohr mag/cell

     iteration #  6     ecut=    30.00 Ry     beta= 0.50
     Davidson diagonalization with overlap
     ethr =  1.78E-08,  avg # of iterations =  2.4

     total cpu time spent up to now is       10.1 secs

     total energy              =    -111.57377000 Ry
     estimated scf accuracy    <       0.00000027 Ry

     total magnetization       =     5.35 Bohr mag/cell
     absolute magnetization    =     5.56 Bohr mag/cell

     iteration #  7     ecut=    30.00 Ry     beta= 0.50
     Davidson diagonalization with overlap
     ethr =  1.71E-09,  avg # of iterations =  4.9

     total cpu time spent up to now is       10.5 secs

     total energy              =    -111.57377032 Ry
     estimated scf accuracy    <       0.00000004 Ry

     total magnetization       =     5.35 Bohr mag/cell
     absolute magnetization    =     5.56 Bohr mag/cell

     iteration #  8     ecut=    30.00 Ry     beta= 0.50
     Davidson diagonalization with overlap
     ethr =  2.74E-10,  avg # of iterations =  4.4

     total cpu time spent up to now is       10.8 secs

     total energy              =    -111.57377037 Ry
     estimated scf accuracy    <       0.00000003 Ry

     total magnetization       =     5.35 Bohr mag/cell
     absolute magnetization    =     5.56 Bohr mag/cell

     iteration #  9     ecut=    30.00 Ry     beta= 0.50
     Davidson diagonalization with overlap
     ethr =  2.06E-10,  avg # of iterations =  1.4

     total cpu time spent up to now is       11.1 secs

     total energy              =    -111.57377037 Ry
     estimated scf accuracy    <          2.7E-09 Ry

     total magnetization       =     5.35 Bohr mag/cell
     absolute magnetization    =     5.56 Bohr mag/cell

     iteration # 10     ecut=    30.00 Ry     beta= 0.50
     Davidson diagonalization with overlap
     ethr =  1.68E-11,  avg # of iterations =  4.9

     Magnetic moment per site  (integrated on atomic sphere of radius R)
     atom   1 (R=0.394)  charge=  6.6925  magn=  2.7150
     atom   2 (R=0.394)  charge=  6.6922  magn=  2.7150

     total cpu time spent up to now is       11.4 secs

     End of self-consistent calculation

 ------ SPIN UP ------------


          k = 0.0000 0.0000 0.0000 (   523 PWs)   bands (ev):

     4.5879   8.0444  10.4799  10.4799  10.5283  10.7918  10.7918  11.1585
    11.1585  12.2576  12.2577  13.0320

          k = 0.0000 0.0000-0.3244 (   494 PWs)   bands (ev):

     6.6962   6.6962  10.2550  10.2551  10.4177  10.4177  10.4177  10.4177
    11.9445  11.9445  11.9445  11.9445

          k =-0.0000 0.2429 0.0000 (   514 PWs)   bands (ev):

     5.8689   8.6878   9.9031  10.0182  10.5231  10.8289  11.0455  11.0904
    11.1642  11.3294  12.3781  16.2715

          k =-0.0000 0.2429-0.3244 (   510 PWs)   bands (ev):

     7.6710   7.6710   9.7462   9.7462  10.3976  10.3977  10.8790  10.8790
    11.9173  11.9174  12.4448  12.4448

          k =-0.0000 0.4858 0.0000 (   488 PWs)   bands (ev):

     8.1219   8.5523   8.8026  10.3252  10.4038  10.6414  10.8398  12.1984
    12.3332  12.4723  12.9895  18.4516

          k =-0.0000 0.4858-0.3244 (   494 PWs)   bands (ev):

     8.1895   8.1895   9.4279   9.4279  11.2812  11.2812  11.7499  11.7499
    12.3329  12.3329  13.8007  13.8007

          k = 0.2104 0.3643 0.0000 (   489 PWs)   bands (ev):

     7.9082   9.1194   9.2227   9.3194  10.2565  10.6305  10.8540  11.4853
    12.1342  12.3564  12.7772  19.5805

          k = 0.2104 0.3643-0.3244 (   504 PWs)   bands (ev):

     8.5359   8.5359   9.7930   9.7930  10.1720  10.1720  11.1169  11.1169
    12.4324  12.4325  13.7026  13.7027

          k = 0.2104 0.6072 0.0000 (   486 PWs)   bands (ev):

     8.7533   8.8694   8.9473   9.9244  10.2018  10.4396  11.0277  12.1889
    12.3228  12.4004  15.7515  17.0820

          k = 0.2104 0.6072-0.3244 (   484 PWs)   bands (ev):

     8.6993   8.6993   9.6294   9.6295  10.4430  10.4430  11.4130  11.4130
    12.4136  12.4136  16.7652  16.7652

          k = 0.2104-0.1214 0.0000 (   514 PWs)   bands (ev):

     5.8689   8.6878   9.9031  10.0182  10.5231  10.8289  11.0455  11.0904
    11.1642  11.3294  12.3781  16.2715

          k = 0.2104-0.1214-0.3244 (   510 PWs)   bands (ev):

     7.6710   7.6710   9.7462   9.7462  10.3976  10.3977  10.8790  10.8790
    11.9173  11.9174  12.4448  12.4448

          k = 0.4207-0.2429 0.0000 (   488 PWs)   bands (ev):

     8.1219   8.5523   8.8026  10.3252  10.4038  10.6414  10.8398  12.1984
    12.3332  12.4723  12.9895  18.4517

          k = 0.4207-0.2429-0.3244 (   494 PWs)   bands (ev):

     8.1895   8.1895   9.4279   9.4279  11.2812  11.2812  11.7499  11.7499
    12.3329  12.3329  13.8008  13.8008

          k = 0.4207-0.0000 0.0000 (   489 PWs)   bands (ev):

     7.9082   9.1194   9.2227   9.3194  10.2565  10.6305  10.8540  11.4853
    12.1342  12.3564  12.7772  19.5805

          k = 0.4207-0.0000 0.3244 (   504 PWs)   bands (ev):

     8.5359   8.5359   9.7930   9.7930  10.1720  10.1720  11.1169  11.1169
    12.4325  12.4325  13.7026  13.7026

          k = 0.4207-0.4858 0.0000 (   486 PWs)   bands (ev):

     8.7533   8.8694   8.9473   9.9244  10.2018  10.4396  11.0277  12.1889
    12.3228  12.4004  15.7514  17.0820

          k = 0.4207-0.4858-0.3244 (   484 PWs)   bands (ev):

     8.6993   8.6993   9.6294   9.6295  10.4430  10.4430  11.4130  11.4130
    12.4135  12.4136  16.7652  16.7652

 ------ SPIN DOWN ----------


          k = 0.0000 0.0000 0.0000 (   523 PWs)   bands (ev):

     4.8099   9.6517  13.1282  13.2218  13.2854  13.2854  13.6897  13.6897
    14.1893  14.1893  15.4750  15.4750

          k = 0.0000 0.0000-0.3244 (   494 PWs)   bands (ev):

     7.0355   7.0355  12.5273  12.5273  13.2304  13.2304  13.2305  13.2305
    15.1205  15.1206  15.1206  15.1206

          k =-0.0000 0.2429 0.0000 (   514 PWs)   bands (ev):

     6.1130  10.4819  11.8333  12.3974  13.2540  13.7666  13.7676  13.9801
    13.9996  14.3152  15.6340  17.9317

          k =-0.0000 0.2429-0.3244 (   510 PWs)   bands (ev):

     8.1286   8.1286  12.1747  12.1748  12.9593  12.9594  13.7632  13.7632
    15.0716  15.0716  15.3959  15.3959

          k =-0.0000 0.4858 0.0000 (   488 PWs)   bands (ev):

     9.0832  10.6705  10.8576  11.8474  13.1958  13.2365  13.4194  15.3618
    15.5119  15.6445  15.7524  19.8814

          k =-0.0000 0.4858-0.3244 (   494 PWs)   bands (ev):

     9.7581   9.7581  11.7392  11.7392  13.5508  13.5509  14.2588  14.2588
    15.5291  15.5291  15.9639  15.9640

          k = 0.2104 0.3643 0.0000 (   489 PWs)   bands (ev):

     8.3569  11.1394  11.2421  11.5526  12.9588  13.2632  13.5640  14.3926
    15.1962  15.6054  15.6792  20.9569

          k = 0.2104 0.3643-0.3244 (   504 PWs)   bands (ev):

     9.6952   9.6952  11.9406  11.9406  12.6034  12.6034  14.0469  14.0470
    15.6022  15.6022  16.0615  16.0615

          k = 0.2104 0.6072 0.0000 (   486 PWs)   bands (ev):

    10.5161  10.8875  10.9314  11.4067  12.8652  12.9596  13.7306  15.2607
    15.5159  15.5631  17.6617  18.8847

          k = 0.2104 0.6072-0.3244 (   484 PWs)   bands (ev):

    10.5793  10.5794  11.9615  11.9615  12.4624  12.4624  14.2629  14.2629
    15.5122  15.5123  18.2603  18.2603

          k = 0.2104-0.1214 0.0000 (   514 PWs)   bands (ev):

     6.1130  10.4819  11.8333  12.3974  13.2540  13.7666  13.7676  13.9801
    13.9996  14.3152  15.6340  17.9317

          k = 0.2104-0.1214-0.3244 (   510 PWs)   bands (ev):

     8.1286   8.1286  12.1747  12.1748  12.9593  12.9594  13.7632  13.7632
    15.0715  15.0716  15.3959  15.3959

          k = 0.4207-0.2429 0.0000 (   488 PWs)   bands (ev):

     9.0832  10.6705  10.8576  11.8474  13.1958  13.2365  13.4194  15.3618
    15.5119  15.6445  15.7523  19.8814

          k = 0.4207-0.2429-0.3244 (   494 PWs)   bands (ev):

     9.7581   9.7581  11.7392  11.7392  13.5509  13.5509  14.2588  14.2588
    15.5291  15.5291  15.9640  15.9640

          k = 0.4207-0.0000 0.0000 (   489 PWs)   bands (ev):

     8.3569  11.1394  11.2421  11.5526  12.9588  13.2632  13.5640  14.3926
    15.1962  15.6054  15.6792  20.9569

          k = 0.4207-0.0000 0.3244 (   504 PWs)   bands (ev):

     9.6952   9.6952  11.9406  11.9406  12.6034  12.6034  14.0469  14.0469
    15.6022  15.6022  16.0615  16.0615

          k = 0.4207-0.4858 0.0000 (   486 PWs)   bands (ev):

    10.5161  10.8875  10.9314  11.4067  12.8652  12.9596  13.7307  15.2607
    15.5159  15.5631  17.6617  18.8847

          k = 0.4207-0.4858-0.3244 (   484 PWs)   bands (ev):

    10.5794  10.5794  11.9615  11.9615  12.4624  12.4624  14.2629  14.2629
    15.5122  15.5123  18.2603  18.2603

     the Fermi energy is    13.2174 ev

!    total energy              =    -111.57377037 Ry
     estimated scf accuracy    <          6.3E-10 Ry
     smearing contrib. (-TS)   =       0.00004500 Ry
     internal energy E=F+TS    =    -111.57381537 Ry

     The total energy is F=E-TS. E is the sum of the following terms:
     one-electron contribution =      13.53030380 Ry
     hartree contribution      =      13.60714444 Ry
     xc contribution           =     -52.96499944 Ry
     ewald contribution        =     -85.74626417 Ry

     total magnetization       =     5.35 Bohr mag/cell
     absolute magnetization    =     5.56 Bohr mag/cell

     convergence has been achieved in  10 iterations

     Forces acting on atoms (cartesian axes, Ry/au):

     atom    1 type  1   force =    -0.00000000    0.00000060    0.00000000
     atom    2 type  1   force =     0.00000000   -0.00000060    0.00000000

     Total force =     0.000001     Total SCF correction =     0.000000
     SCF correction compared to forces is large: reduce conv_thr to get better values


     Computing stress (Cartesian axis) and pressure

          total   stress  (Ry/bohr**3)                   (kbar)     P=       57.72
   0.00023405  -0.00000000   0.00000000           34.43       -0.00        0.00
  -0.00000000   0.00023409   0.00000000           -0.00       34.44        0.00
   0.00000000   0.00000000   0.00070896            0.00        0.00      104.29

     Energy error            =      1.4E-03 Ry
     Gradient error          =      6.0E-07 Ry/Bohr
     Cell gradient error     =      1.0E+02 kbar

     number of scf cycles    =   3
     number of bfgs steps    =   2

     enthalpy           old  =    -111.5723295604 Ry
     enthalpy           new  =    -111.5737703746 Ry

     CASE: enthalpy          _new < enthalpy          _old

     new trust radius        =       0.0261132173 bohr
     new conv_thr            =       0.0000000010 Ry

     new unit-cell volume =    163.33866 a.u.^3 (    24.20429 Ang^3 )
     density =      7.66251 g/cm^3

CELL_PARAMETERS (angstrom)
   2.578247413   0.000000000   0.000000000
  -1.289123707   2.232832428   0.000000000
   0.000000000   0.000000000   4.204473850

ATOMIC_POSITIONS (angstrom)
Fe               0.0000000000        0.0000053145        0.0000000000
Fe               0.0000000000        1.4885537180        2.1022369248


     Message from routine punch:
     Nothing written, as per user request (disk_io='none')
     NEW-OLD atomic charge density approx. for the potential
     New effective cutoffs (rho, wfc):  328.81   32.82

     Check: negative core charge=   -0.000003
     Generating pointlists ...

     total cpu time spent up to now is       11.9 secs

     Self-consistent Calculation

     iteration #  1     ecut=    30.00 Ry     beta= 0.50
     Davidson diagonalization with overlap
     ethr =  1.00E-06,  avg # of iterations =  4.1

     total cpu time spent up to now is       12.3 secs

     total energy              =    -111.57484205 Ry
     estimated scf accuracy    <       0.00004913 Ry

     total magnetization       =     5.35 Bohr mag/cell
     absolute magnetization    =     5.57 Bohr mag/cell

     iteration #  2     ecut=    30.00 Ry     beta= 0.50
     Davidson diagonalization with overlap
     ethr =  3.07E-07,  avg # of iterations =  2.5

     total cpu time spent up to now is       12.6 secs

     total energy              =    -111.57485655 Ry
     estimated scf accuracy    <       0.00002629 Ry

     total magnetization       =     5.35 Bohr mag/cell
     absolute magnetization    =     5.58 Bohr mag/cell

     iteration #  3     ecut=    30.00 Ry     beta= 0.50
     Davidson diagonalization with overlap
     ethr =  1.64E-07,  avg # of iterations =  1.5

     total cpu time spent up to now is       12.8 secs

     total energy              =    -111.57485296 Ry
     estimated scf accuracy    <       0.00009762 Ry

     total magnetization       =     5.35 Bohr mag/cell
     absolute magnetization    =     5.58 Bohr mag/cell

     iteration #  4     ecut=    30.00 Ry     beta= 0.50
     Davidson diagonalization with overlap
     ethr =  1.64E-07,  avg # of iterations =  1.0

     total cpu time spent up to now is       13.1 secs

     total energy              =    -111.57486535 Ry
     estimated scf accuracy    <       0.00001491 Ry

     total magnetization       =     5.35 Bohr mag/cell
     absolute magnetization    =     5.58 Bohr mag/cell

     iteration #  5     ecut=    30.00 Ry     beta= 0.50
     Davidson diagonalization with overlap
     ethr =  9.32E-08,  avg # of iterations =  1.6

     total cpu time spent up to now is       13.4 secs

     total energy              =    -111.57486743 Ry
     estimated scf accuracy    <       0.00000087 Ry

     total magnetization       =     5.35 Bohr mag/cell
     absolute magnetization    =     5.58 Bohr mag/cell

     iteration #  6     ecut=    30.00 Ry     beta= 0.50
     Davidson diagonalization with overlap
     ethr =  5.44E-09,  avg # of iterations =  2.6

     total cpu time spent up to now is       13.7 secs

     total energy              =    -111.57486783 Ry
     estimated scf accuracy    <       0.00000005 Ry

     total magnetization       =     5.35 Bohr mag/cell
     absolute magnetization    =     5.58 Bohr mag/cell

     iteration #  7     ecut=    30.00 Ry     beta= 0.50
     Davidson diagonalization with overlap
     ethr =  2.91E-10,  avg # of iterations =  5.6

     total cpu time spent up to now is       14.2 secs

     total energy              =    -111.57486789 Ry
     estimated scf accuracy    <       0.00000003 Ry

     total magnetization       =     5.35 Bohr mag/cell
     absolute magnetization    =     5.58 Bohr mag/cell

     iteration #  8     ecut=    30.00 Ry     beta= 0.50
     Davidson diagonalization with overlap
     ethr =  2.02E-10,  avg # of iterations =  3.2

     total cpu time spent up to now is       14.5 secs

     total energy              =    -111.57486790 Ry
     estimated scf accuracy    <       0.00000002 Ry

     total magnetization       =     5.35 Bohr mag/cell
     absolute magnetization    =     5.58 Bohr mag/cell

     iteration #  9     ecut=    30.00 Ry     beta= 0.50
     Davidson diagonalization with overlap
     ethr =  9.96E-11,  avg # of iterations =  2.2

     Magnetic moment per site  (integrated on atomic sphere of radius R)
     atom   1 (R=0.394)  charge=  6.6669  magn=  2.7210
     atom   2 (R=0.394)  charge=  6.6660  magn=  2.7210

     total cpu time spent up to now is       14.8 secs

     End of self-consistent calculation

 ------ SPIN UP ------------


          k = 0.0000 0.0000 0.0000 (   523 PWs)   bands (ev):

     4.3833   7.8110  10.1939  10.1939  10.2068  10.4892  10.4892  10.8562
    10.8563  11.9012  11.9012  12.6696

          k = 0.0000 0.0000-0.3211 (   494 PWs)   bands (ev):

     6.4505   6.4505   9.9530   9.9530  10.1378  10.1378  10.1378  10.1378
    11.5991  11.5991  11.5991  11.5991

          k =-0.0000 0.2418 0.0000 (   514 PWs)   bands (ev):

     5.6516   8.4502   9.6362   9.7308  10.2189  10.5382  10.7296  10.7905
    10.8339  11.0164  12.0137  15.8462

          k =-0.0000 0.2418-0.3211 (   510 PWs)   bands (ev):

     7.4213   7.4213   9.4752   9.4752  10.1048  10.1048  10.5895  10.5895
    11.5738  11.5738  12.0826  12.0826

          k =-0.0000 0.4837 0.0000 (   488 PWs)   bands (ev):

     7.8898   8.3179   8.5521  10.0598  10.1271  10.3243  10.5268  11.8724
    11.9985  12.0995  12.6391  18.0455

          k =-0.0000 0.4837-0.3211 (   494 PWs)   bands (ev):

     7.9564   7.9564   9.1565   9.1565  10.9686  10.9686  11.4332  11.4332
    11.9967  11.9968  13.4428  13.4428

          k = 0.2094 0.3628 0.0000 (   489 PWs)   bands (ev):

     7.6743   8.8622   8.9817   9.0712   9.9703  10.3235  10.5467  11.1471
    11.8059  11.9842  12.4383  19.1100

          k = 0.2094 0.3628-0.3211 (   504 PWs)   bands (ev):

     8.2918   8.2918   9.5208   9.5208   9.8887   9.8887  10.8082  10.8082
    12.0819  12.0819  13.3333  13.3333

          k = 0.2094 0.6046 0.0000 (   486 PWs)   bands (ev):

     8.5140   8.6337   8.7048   9.6706   9.9190  10.1331  10.7102  11.8436
    11.9467  12.0521  15.4006  16.6952

          k = 0.2094 0.6046-0.3211 (   484 PWs)   bands (ev):

     8.4580   8.4581   9.3594   9.3594  10.1554  10.1554  11.0975  11.0975
    12.0625  12.0625  16.3964  16.3964

          k = 0.2094-0.1209 0.0000 (   514 PWs)   bands (ev):

     5.6516   8.4502   9.6362   9.7308  10.2189  10.5381  10.7296  10.7905
    10.8339  11.0164  12.0137  15.8462

          k = 0.2094-0.1209-0.3211 (   510 PWs)   bands (ev):

     7.4213   7.4213   9.4752   9.4752  10.1048  10.1048  10.5895  10.5895
    11.5738  11.5738  12.0826  12.0826

          k = 0.4189-0.2418 0.0000 (   488 PWs)   bands (ev):

     7.8898   8.3179   8.5521  10.0598  10.1271  10.3243  10.5268  11.8725
    11.9985  12.0995  12.6391  18.0455

          k = 0.4189-0.2418-0.3211 (   494 PWs)   bands (ev):

     7.9564   7.9564   9.1565   9.1565  10.9686  10.9686  11.4332  11.4332
    11.9967  11.9968  13.4428  13.4428

          k = 0.4189-0.0000 0.0000 (   489 PWs)   bands (ev):

     7.6743   8.8622   8.9817   9.0712   9.9703  10.3235  10.5467  11.1471
    11.8059  11.9843  12.4384  19.1100

          k = 0.4189-0.0000 0.3211 (   504 PWs)   bands (ev):

     8.2918   8.2918   9.5208   9.5208   9.8887   9.8887  10.8082  10.8082
    12.0819  12.0819  13.3333  13.3333

          k = 0.4189-0.4837 0.0000 (   486 PWs)   bands (ev):

     8.5140   8.6337   8.7048   9.6707   9.9190  10.1331  10.7102  11.8436
    11.9467  12.0521  15.4006  16.6952

          k = 0.4189-0.4837-0.3211 (   484 PWs)   bands (ev):

     8.4581   8.4581   9.3594   9.3594  10.1554  10.1554  11.0975  11.0975
    12.0625  12.0625  16.3965  16.3965

 ------ SPIN DOWN ----------


          k = 0.0000 0.0000 0.0000 (   523 PWs)   bands (ev):

     4.5844   9.4011  12.7414  12.8923  13.0005  13.0005  13.3856  13.3856
    13.9084  13.9085  15.1375  15.1375

          k = 0.0000 0.0000-0.3211 (   494 PWs)   bands (ev):

     6.7648   6.7648  12.2226  12.2227  12.9547  12.9548  12.9548  12.9548
    14.7901  14.7901  14.7901  14.7901

          k =-0.0000 0.2418 0.0000 (   514 PWs)   bands (ev):

     5.8745  10.2326  11.5311  12.1321  12.9464  13.4777  13.4986  13.6431
    13.7004  14.0009  15.2873  17.5076

          k =-0.0000 0.2418-0.3211 (   510 PWs)   bands (ev):

     7.8540   7.8540  11.9060  11.9060  12.6676  12.6676  13.4820  13.4820
    14.7390  14.7390  15.0470  15.0470

          k =-0.0000 0.4837 0.0000 (   488 PWs)   bands (ev):

     8.8330  10.4385  10.6161  11.5864  12.8933  12.9814  13.0964  15.0351
    15.1757  15.2818  15.3960  19.4425

          k =-0.0000 0.4837-0.3211 (   494 PWs)   bands (ev):

     9.5180   9.5180  11.4720  11.4720  13.2376  13.2376  13.9667  13.9667
    15.1920  15.1921  15.5936  15.5936

          k = 0.2094 0.3628 0.0000 (   489 PWs)   bands (ev):

     8.1030  10.8851  11.0009  11.3066  12.6911  12.9480  13.2787  14.0477
    14.8675  15.2489  15.3378  20.4748

          k = 0.2094 0.3628-0.3211 (   504 PWs)   bands (ev):

     9.4325   9.4325  11.6767  11.6767  12.3208  12.3208  13.7534  13.7534
    15.2532  15.2532  15.6954  15.6954

          k = 0.2094 0.6046 0.0000 (   486 PWs)   bands (ev):

    10.2703  10.6499  10.7062  11.1516  12.6015  12.6665  13.4044  14.9093
    15.1632  15.2016  17.2895  18.4808

          k = 0.2094 0.6046-0.3211 (   484 PWs)   bands (ev):

    10.3434  10.3434  11.6928  11.6928  12.1842  12.1842  13.9506  13.9507
    15.1651  15.1651  17.8690  17.8690

          k = 0.2094-0.1209 0.0000 (   514 PWs)   bands (ev):

     5.8745  10.2326  11.5311  12.1321  12.9464  13.4778  13.4986  13.6431
    13.7003  14.0009  15.2873  17.5076

          k = 0.2094-0.1209-0.3211 (   510 PWs)   bands (ev):

     7.8540   7.8540  11.9060  11.9060  12.6676  12.6676  13.4820  13.4820
    14.7390  14.7390  15.0471  15.0471

          k = 0.4189-0.2418 0.0000 (   488 PWs)   bands (ev):

     8.8330  10.4385  10.6161  11.5864  12.8933  12.9813  13.0965  15.0351
    15.1757  15.2818  15.3960  19.4425

          k = 0.4189-0.2418-0.3211 (   494 PWs)   bands (ev):

     9.5180   9.5180  11.4720  11.4720  13.2376  13.2376  13.9667  13.9667
    15.1920  15.1920  15.5936  15.5936

          k = 0.4189-0.0000 0.0000 (   489 PWs)   bands (ev):

     8.1030  10.8851  11.0009  11.3066  12.6911  12.9480  13.2787  14.0478
    14.8675  15.2490  15.3377  20.4748

          k = 0.4189-0.0000 0.3211 (   504 PWs)   bands (ev):

     9.4325   9.4325  11.6767  11.6767  12.3208  12.3208  13.7534  13.7534
    15.2532  15.2532  15.6954  15.6954

          k = 0.4189-0.4837 0.0000 (   486 PWs)   bands (ev):

    10.2703  10.6499  10.7062  11.1516  12.6015  12.6666  13.4044  14.9093
    15.1632  15.2016  17.2895  18.4808

          k = 0.4189-0.4837-0.3211 (   484 PWs)   bands (ev):

    10.3434  10.3434  11.6928  11.6928  12.1842  12.1842  13.9506  13.9507
    15.1651  15.1651  17.8691  17.8691

     the Fermi energy is    12.9215 ev

!    total energy              =    -111.57486791 Ry
     estimated scf accuracy    <          4.8E-10 Ry
     smearing contrib. (-TS)   =       0.00020026 Ry
     internal energy E=F+TS    =    -111.57506817 Ry

     The total energy is F=E-TS. E is the sum of the following terms:
     one-electron contribution =      12.76699702 Ry
     hartree contribution      =      13.80485254 Ry
     xc contribution           =     -52.93918837 Ry
     ewald contribution        =     -85.20772936 Ry

     total magnetization       =     5.35 Bohr mag/cell
     absolute magnetization    =     5.58 Bohr mag/cell

     convergence has been achieved in   9 iterations

     Forces acting on atoms (cartesian axes, Ry/au):

     atom    1 type  1   force =    -0.00000000    0.00000089    0.00000000
     atom    2 type  1   force =     0.00000000   -0.00000089    0.00000000

     Total force =     0.000001     Total SCF correction =     0.000000


     Computing stress (Cartesian axis) and pressure

          total   stress  (Ry/bohr**3)                   (kbar)     P=       19.29
  -0.00001994   0.00000000   0.00000000           -2.93        0.00        0.00
   0.00000000  -0.00001989   0.00000000            0.00       -2.93        0.00
   0.00000000   0.00000000   0.00043329            0.00        0.00       63.74

     Energy error            =      1.1E-03 Ry
     Gradient error          =      8.9E-07 Ry/Bohr
     Cell gradient error     =      6.4E+01 kbar

     number of scf cycles    =   4
     number of bfgs steps    =   3

     enthalpy           old  =    -111.5737703746 Ry
     enthalpy           new  =    -111.5748679055 Ry

     CASE: enthalpy          _new < enthalpy          _old

     new trust radius        =       0.0670032415 bohr
     new conv_thr            =       0.0000000010 Ry

     new unit-cell volume =    165.74260 a.u.^3 (    24.56052 Ang^3 )
     density =      7.55137 g/cm^3

CELL_PARAMETERS (angstrom)
   2.563762031   0.000000000   0.000000000
  -1.281881016   2.220294291   0.000000000
   0.000000000   0.000000000   4.314686890

ATOMIC_POSITIONS (angstrom)
Fe               0.0000000000        0.0000073468        0.0000000000
Fe               0.0000000000        1.4801929045        2.1573434451


     Message from routine punch:
     Nothing written, as per user request (disk_io='none')
     NEW-OLD atomic charge density approx. for the potential
     New effective cutoffs (rho, wfc):  332.49   33.16

     Check: negative core charge=   -0.000003
     Generating pointlists ...

     total cpu time spent up to now is       15.2 secs

     Self-consistent Calculation

     iteration #  1     ecut=    30.00 Ry     beta= 0.50
     Davidson diagonalization with overlap
     ethr =  1.00E-06,  avg # of iterations =  6.1

     total cpu time spent up to now is       15.7 secs

     total energy              =    -111.57601015 Ry
     estimated scf accuracy    <       0.00028167 Ry

     total magnetization       =     5.35 Bohr mag/cell
     absolute magnetization    =     5.59 Bohr mag/cell

     iteration #  2     ecut=    30.00 Ry     beta= 0.50
     Davidson diagonalization with overlap
     ethr =  1.76E-06,  avg # of iterations =  1.0

     total cpu time spent up to now is       15.9 secs

     total energy              =    -111.57607325 Ry
     estimated scf accuracy    <       0.00007613 Ry

     total magnetization       =     5.35 Bohr mag/cell
     absolute magnetization    =     5.59 Bohr mag/cell

     iteration #  3     ecut=    30.00 Ry     beta= 0.50
     Davidson diagonalization with overlap
     ethr =  4.76E-07,  avg # of iterations =  1.9

     total cpu time spent up to now is       16.2 secs

     total energy              =    -111.57609452 Ry
     estimated scf accuracy    <       0.00000940 Ry

     total magnetization       =     5.35 Bohr mag/cell
     absolute magnetization    =     5.60 Bohr mag/cell

     iteration #  4     ecut=    30.00 Ry     beta= 0.50
     Davidson diagonalization with overlap
     ethr =  5.88E-08,  avg # of iterations =  2.5

     total cpu time spent up to now is       16.5 secs

     total energy              =    -111.57609800 Ry
     estimated scf accuracy    <       0.00000797 Ry

     total magnetization       =     5.35 Bohr mag/cell
     absolute magnetization    =     5.60 Bohr mag/cell

     iteration #  5     ecut=    30.00 Ry     beta= 0.50
     Davidson diagonalization with overlap
     ethr =  4.98E-08,  avg # of iterations =  1.9

     total cpu time spent up to now is       16.8 secs

     total energy              =    -111.57609902 Ry
     estimated scf accuracy    <       0.00003995 Ry

     total magnetization       =     5.35 Bohr mag/cell
     absolute magnetization    =     5.60 Bohr mag/cell

     iteration #  6     ecut=    30.00 Ry     beta= 0.50
     Davidson diagonalization with overlap
     ethr =  4.98E-08,  avg # of iterations =  1.2

     total cpu time spent up to now is       17.0 secs

     total energy              =    -111.57610204 Ry
     estimated scf accuracy    <       0.00000019 Ry

     total magnetization       =     5.35 Bohr mag/cell
     absolute magnetization    =     5.60 Bohr mag/cell

     iteration #  7     ecut=    30.00 Ry     beta= 0.50
     Davidson diagonalization with overlap
     ethr =  1.20E-09,  avg # of iterations =  5.7

     total cpu time spent up to now is       17.4 secs

     total energy              =    -111.57610239 Ry
     estimated scf accuracy    <       0.00000011 Ry

     total magnetization       =     5.35 Bohr mag/cell
     absolute magnetization    =     5.60 Bohr mag/cell

     iteration #  8     ecut=    30.00 Ry     beta= 0.50
     Davidson diagonalization with overlap
     ethr =  6.68E-10,  avg # of iterations =  2.5

     total cpu time spent up to now is       17.7 secs

     total energy              =    -111.57610243 Ry
     estimated scf accuracy    <          3.1E-09 Ry

     total magnetization       =     5.35 Bohr mag/cell
     absolute magnetization    =     5.60 Bohr mag/cell

     iteration #  9     ecut=    30.00 Ry     beta= 0.50
     Davidson diagonalization with overlap
     ethr =  1.91E-11,  avg # of iterations =  6.7

     total cpu time spent up to now is       18.1 secs

     total energy              =    -111.57610244 Ry
     estimated scf accuracy    <          2.9E-09 Ry

     total magnetization       =     5.35 Bohr mag/cell
     absolute magnetization    =     5.60 Bohr mag/cell

     iteration # 10     ecut=    30.00 Ry     beta= 0.50
     Davidson diagonalization with overlap
     ethr =  1.83E-11,  avg # of iterations =  2.2

     Magnetic moment per site  (integrated on atomic sphere of radius R)
     atom   1 (R=0.394)  charge=  6.6493  magn=  2.7259
     atom   2 (R=0.394)  charge=  6.6486  magn=  2.7259

     total cpu time spent up to now is       18.4 secs

     End of self-consistent calculation

 ------ SPIN UP ------------


          k = 0.0000 0.0000 0.0000 (   523 PWs)   bands (ev):

     4.2317   7.6141   9.8398  10.0123  10.0123  10.2680  10.2680  10.6883
    10.6883  11.5986  11.5986  12.1283

          k = 0.0000 0.0000-0.3129 (   494 PWs)   bands (ev):

     6.2006   6.2006   9.6374   9.6375   9.9790   9.9790   9.9790   9.9790
    11.3175  11.3175  11.3175  11.3175

          k =-0.0000 0.2432 0.0000 (   514 PWs)   bands (ev):

     5.5125   8.2896   9.4507   9.4647   9.9458  10.3832  10.4659  10.5118
    10.6161  10.8117  11.6885  15.3399

          k =-0.0000 0.2432-0.3129 (   510 PWs)   bands (ev):

     7.1959   7.1959   9.2577   9.2577   9.8750   9.8750  10.4423  10.4423
    11.2941  11.2941  11.7530  11.7530

          k =-0.0000 0.4864 0.0000 (   488 PWs)   bands (ev):

     7.7390   8.1522   8.3215   9.9089   9.9867   9.9968  10.2589  11.7163
    11.7446  11.8179  12.4002  17.7869

          k =-0.0000 0.4864-0.3129 (   494 PWs)   bands (ev):

     7.7727   7.7727   8.9048   8.9049  10.7548  10.7548  11.2123  11.2123
    11.8107  11.8107  13.1501  13.1501

          k = 0.2106 0.3648 0.0000 (   489 PWs)   bands (ev):

     7.5532   8.6319   8.8572   8.9163   9.7551  10.0489  10.3075  10.8216
    11.6145  11.6215  12.2670  18.5768

          k = 0.2106 0.3648-0.3129 (   504 PWs)   bands (ev):

     8.1001   8.1001   9.3156   9.3156   9.6669   9.6669  10.5903  10.5903
    11.8212  11.8212  13.0466  13.0466

          k = 0.2106 0.6080 0.0000 (   486 PWs)   bands (ev):

     8.3312   8.4891   8.5670   9.5559   9.7183   9.8348  10.4308  11.5515
    11.5799  11.7974  15.2934  16.5763

          k = 0.2106 0.6080-0.3129 (   484 PWs)   bands (ev):

     8.2777   8.2777   9.1396   9.1396   9.9399   9.9399  10.8789  10.8789
    11.7894  11.7894  16.2129  16.2129

          k = 0.2106-0.1216 0.0000 (   514 PWs)   bands (ev):

     5.5125   8.2896   9.4507   9.4647   9.9458  10.3832  10.4659  10.5118
    10.6161  10.8116  11.6885  15.3399

          k = 0.2106-0.1216-0.3129 (   510 PWs)   bands (ev):

     7.1959   7.1960   9.2577   9.2577   9.8750   9.8750  10.4423  10.4423
    11.2941  11.2941  11.7530  11.7530

          k = 0.4213-0.2432 0.0000 (   488 PWs)   bands (ev):

     7.7390   8.1522   8.3215   9.9089   9.9866   9.9968  10.2589  11.7163
    11.7446  11.8179  12.4003  17.7870

          k = 0.4213-0.2432-0.3129 (   494 PWs)   bands (ev):

     7.7727   7.7728   8.9048   8.9049  10.7548  10.7548  11.2123  11.2123
    11.8107  11.8107  13.1501  13.1501

          k = 0.4213-0.0000 0.0000 (   489 PWs)   bands (ev):

     7.5532   8.6319   8.8572   8.9163   9.7551  10.0489  10.3075  10.8216
    11.6145  11.6215  12.2670  18.5769

          k = 0.4213-0.0000 0.3129 (   504 PWs)   bands (ev):

     8.1001   8.1001   9.3156   9.3156   9.6669   9.6669  10.5903  10.5903
    11.8212  11.8212  13.0466  13.0466

          k = 0.4213-0.4864 0.0000 (   486 PWs)   bands (ev):

     8.3312   8.4890   8.5670   9.5560   9.7183   9.8348  10.4308  11.5515
    11.5799  11.7974  15.2934  16.5764

          k = 0.4213-0.4864-0.3129 (   484 PWs)   bands (ev):

     8.2777   8.2777   9.1396   9.1396   9.9399   9.9399  10.8789  10.8789
    11.7894  11.7894  16.2130  16.2130

 ------ SPIN DOWN ----------


          k = 0.0000 0.0000 0.0000 (   523 PWs)   bands (ev):

     4.4127   9.1314  12.1825  12.4599  12.7994  12.7995  13.1340  13.1340
    13.8255  13.8255  14.9067  14.9067

          k = 0.0000 0.0000-0.3129 (   494 PWs)   bands (ev):

     6.4817   6.4817  11.8608  11.8608  12.7894  12.7894  12.7894  12.7895
    14.5659  14.5659  14.5659  14.5659

          k =-0.0000 0.2432 0.0000 (   514 PWs)   bands (ev):

     5.7169  10.0166  11.1771  11.9394  12.6314  13.2619  13.3197  13.4283
    13.5053  13.7676  15.0293  17.0905

          k =-0.0000 0.2432-0.3129 (   510 PWs)   bands (ev):

     7.5973   7.5973  11.6648  11.6649  12.4164  12.4164  13.3489  13.3489
    14.4966  14.4966  14.7617  14.7617

          k =-0.0000 0.4864 0.0000 (   488 PWs)   bands (ev):

     8.6946  10.2529  10.4083  11.4621  12.6143  12.7433  12.9245  14.8554
    14.9623  14.9689  15.1021  19.0818

          k =-0.0000 0.4864-0.3129 (   494 PWs)   bands (ev):

     9.3351   9.3351  11.2242  11.2242  13.0144  13.0144  13.8321  13.8321
    14.9812  14.9813  15.2637  15.2637

          k = 0.2106 0.3648 0.0000 (   489 PWs)   bands (ev):

     7.9699  10.6520  10.8638  11.1394  12.5405  12.6102  13.1252  13.6636
    14.6588  14.9349  15.1327  19.9776

          k = 0.2106 0.3648-0.3129 (   504 PWs)   bands (ev):

     9.2299   9.2299  11.4786  11.4786  12.0711  12.0712  13.5886  13.5886
    14.9780  14.9780  15.4208  15.4208

          k = 0.2106 0.6080 0.0000 (   486 PWs)   bands (ev):

    10.1468  10.4871  10.5644  11.0445  12.4119  12.4699  13.0561  14.5908
    14.8552  14.8647  17.1275  18.3111

          k = 0.2106 0.6080-0.3129 (   484 PWs)   bands (ev):

    10.1850  10.1850  11.4661  11.4661  12.0072  12.0072  13.7185  13.7186
    14.8896  14.8896  17.6556  17.6556

          k = 0.2106-0.1216 0.0000 (   514 PWs)   bands (ev):

     5.7169  10.0166  11.1771  11.9394  12.6314  13.2619  13.3197  13.4283
    13.5052  13.7676  15.0293  17.0905

          k = 0.2106-0.1216-0.3129 (   510 PWs)   bands (ev):

     7.5973   7.5973  11.6649  11.6649  12.4164  12.4165  13.3488  13.3489
    14.4966  14.4966  14.7617  14.7617

          k = 0.4213-0.2432 0.0000 (   488 PWs)   bands (ev):

     8.6946  10.2529  10.4083  11.4621  12.6143  12.7433  12.9244  14.8554
    14.9623  14.9689  15.1021  19.0818

          k = 0.4213-0.2432-0.3129 (   494 PWs)   bands (ev):

     9.3351   9.3351  11.2242  11.2242  13.0145  13.0145  13.8321  13.8321
    14.9812  14.9813  15.2637  15.2637

          k = 0.4213-0.0000 0.0000 (   489 PWs)   bands (ev):

     7.9699  10.6520  10.8638  11.1394  12.5405  12.6102  13.1252  13.6636
    14.6588  14.9349  15.1327  19.9776

          k = 0.4213-0.0000 0.3129 (   504 PWs)   bands (ev):

     9.2299   9.2299  11.4786  11.4786  12.0712  12.0712  13.5886  13.5886
    14.9779  14.9779  15.4208  15.4208

          k = 0.4213-0.4864 0.0000 (   486 PWs)   bands (ev):

    10.1468  10.4871  10.5644  11.0446  12.4120  12.4698  13.0562  14.5908
    14.8552  14.8647  17.1275  18.3112

          k = 0.4213-0.4864-0.3129 (   484 PWs)   bands (ev):

    10.1850  10.1850  11.4661  11.4661  12.0072  12.0072  13.7185  13.7186
    14.8896  14.8896  17.6557  17.6557

     the Fermi energy is    12.6643 ev

!    total energy              =    -111.57610244 Ry
     estimated scf accuracy    <          1.6E-10 Ry
     smearing contrib. (-TS)   =       0.00029718 Ry
     internal energy E=F+TS    =    -111.57639961 Ry

     The total energy is F=E-TS. E is the sum of the following terms:
     one-electron contribution =      12.16000194 Ry
     hartree contribution      =      13.96996657 Ry
     xc contribution           =     -52.92255009 Ry
     ewald contribution        =     -84.78381803 Ry

     total magnetization       =     5.35 Bohr mag/cell
     absolute magnetization    =     5.60 Bohr mag/cell

     convergence has been achieved in  10 iterations

     Forces acting on atoms (cartesian axes, Ry/au):

     atom    1 type  1   force =    -0.00000000    0.00000179    0.00000000
     atom    2 type  1   force =     0.00000000   -0.00000179    0.00000000

     Total force =     0.000003     Total SCF correction =     0.000000


     Computing stress (Cartesian axis) and pressure

          total   stress  (Ry/bohr**3)                   (kbar)     P=       -7.19
  -0.00010380   0.00000000   0.00000000          -15.27        0.00        0.00
   0.00000000  -0.00010374  -0.00000000            0.00      -15.26       -0.00
   0.00000000   0.00000000   0.00006095            0.00        0.00        8.97

     Energy error            =      1.2E-03 Ry
     Gradient error          =      1.8E-06 Ry/Bohr
     Cell gradient error     =      1.5E+01 kbar

     number of scf cycles    =   5
     number of bfgs steps    =   4

     enthalpy           old  =    -111.5748679055 Ry
     enthalpy           new  =    -111.5761024372 Ry

     CASE: enthalpy          _new < enthalpy          _old

     new trust radius        =       0.0249762765 bohr
     new conv_thr            =       0.0000000010 Ry

     new unit-cell volume =    165.50778 a.u.^3 (    24.52572 Ang^3 )
     density =      7.56209 g/cm^3

CELL_PARAMETERS (angstrom)
   2.549605544   0.000000000   0.000000000
  -1.274802772   2.208040831   0.000000000
   0.000000000  -0.000000000   4.356540210

ATOMIC_POSITIONS (angstrom)
Fe               0.0000000000        0.0000090893        0.0000000000
Fe               0.0000000000        1.4720221663        2.1782701051


     Message from routine punch:
     Nothing written, as per user request (disk_io='none')
     NEW-OLD atomic charge density approx. for the potential
     New effective cutoffs (rho, wfc):  336.18   33.51

     Check: negative core charge=   -0.000003
     Generating pointlists ...
     new r_m :   0.3895 (alat units)  1.9874 (a.u.) for type    1

     total cpu time spent up to now is       18.9 secs

     Self-consistent Calculation

     iteration #  1     ecut=    30.00 Ry     beta= 0.50
     Davidson diagonalization with overlap
     ethr =  1.00E-06,  avg # of iterations =  5.1

     total cpu time spent up to now is       19.3 secs

     total energy              =    -111.57620216 Ry
     estimated scf accuracy    <       0.00005095 Ry

     total magnetization       =     5.35 Bohr mag/cell
     absolute magnetization    =     5.60 Bohr mag/cell

     iteration #  2     ecut=    30.00 Ry     beta= 0.50
     Davidson diagonalization with overlap
     ethr =  3.18E-07,  avg # of iterations =  1.1

     total cpu time spent up to now is       19.5 secs

     total energy              =    -111.57621408 Ry
     estimated scf accuracy    <       0.00001352 Ry

     total magnetization       =     5.35 Bohr mag/cell
     absolute magnetization    =     5.60 Bohr mag/cell

     iteration #  3     ecut=    30.00 Ry     beta= 0.50
     Davidson diagonalization with overlap
     ethr =  8.45E-08,  avg # of iterations =  2.1

     total cpu time spent up to now is       19.8 secs

     total energy              =    -111.57621500 Ry
     estimated scf accuracy    <       0.00001743 Ry

     total magnetization       =     5.35 Bohr mag/cell
     absolute magnetization    =     5.59 Bohr mag/cell

     iteration #  4     ecut=    30.00 Ry     beta= 0.50
     Davidson diagonalization with overlap
     ethr =  8.45E-08,  avg # of iterations =  1.2

     total cpu time spent up to now is       20.1 secs

     total energy              =    -111.57621784 Ry
     estimated scf accuracy    <       0.00001523 Ry

     total magnetization       =     5.35 Bohr mag/cell
     absolute magnetization    =     5.59 Bohr mag/cell

     iteration #  5     ecut=    30.00 Ry     beta= 0.50
     Davidson diagonalization with overlap
     ethr =  8.45E-08,  avg # of iterations =  1.0

     total cpu time spent up to now is       20.3 secs

     total energy              =    -111.57621933 Ry
     estimated scf accuracy    <       0.00000031 Ry

     total magnetization       =     5.35 Bohr mag/cell
     absolute magnetization    =     5.59 Bohr mag/cell

     iteration #  6     ecut=    30.00 Ry     beta= 0.50
     Davidson diagonalization with overlap
     ethr =  1.96E-09,  avg # of iterations =  4.3

     total cpu time spent up to now is       20.7 secs

     total energy              =    -111.57621964 Ry
     estimated scf accuracy    <       0.00000006 Ry

     total magnetization       =     5.35 Bohr mag/cell
     absolute magnetization    =     5.59 Bohr mag/cell

     iteration #  7     ecut=    30.00 Ry     beta= 0.50
     Davidson diagonalization with overlap
     ethr =  3.56E-10,  avg # of iterations =  4.6

     total cpu time spent up to now is       21.0 secs

     total energy              =    -111.57621971 Ry
     estimated scf accuracy    <          8.7E-09 Ry

     total magnetization       =     5.35 Bohr mag/cell
     absolute magnetization    =     5.59 Bohr mag/cell

     iteration #  8     ecut=    30.00 Ry     beta= 0.50
     Davidson diagonalization with overlap
     ethr =  5.47E-11,  avg # of iterations =  4.5

     Magnetic moment per site  (integrated on atomic sphere of radius R)
     atom   1 (R=0.390)  charge=  6.5856  magn=  2.7230
     atom   2 (R=0.390)  charge=  6.5859  magn=  2.7230

     total cpu time spent up to now is       21.4 secs

     End of self-consistent calculation

 ------ SPIN UP ------------


          k = 0.0000 0.0000 0.0000 (   523 PWs)   bands (ev):

     4.2485   7.6154   9.7895  10.0512  10.0512  10.2926  10.2926  10.7472
    10.7472  11.6080  11.6081  12.0051

          k = 0.0000 0.0000-0.3099 (   494 PWs)   bands (ev):

     6.1813   6.1813   9.6078   9.6078  10.0274  10.0274  10.0274  10.0275
    11.3338  11.3338  11.3338  11.3338

          k =-0.0000 0.2446 0.0000 (   514 PWs)   bands (ev):

     5.5434   8.3148   9.4333   9.4990   9.9396  10.4439  10.4792  10.4944
    10.6668  10.8516  11.6886  15.2694

          k =-0.0000 0.2446-0.3099 (   510 PWs)   bands (ev):

     7.1935   7.1935   9.2670   9.2670   9.8923   9.8923  10.5041  10.5041
    11.3092  11.3092  11.7475  11.7475

          k =-0.0000 0.4891 0.0000 (   488 PWs)   bands (ev):

     7.7683   8.1725   8.3175   9.9462   9.9700  10.0489  10.2748  11.7315
    11.7915  11.8840  12.4390  17.8300

          k =-0.0000 0.4891-0.3099 (   494 PWs)   bands (ev):

     7.7859   7.7859   8.8965   8.8965  10.7912  10.7912  11.2443  11.2443
    11.8753  11.8753  13.1642  13.1642

          k = 0.2118 0.3668 0.0000 (   489 PWs)   bands (ev):

     7.6033   8.6299   8.9062   8.9514   9.7773  10.0447  10.3302  10.8034
    11.5921  11.6810  12.3406  18.5131

          k = 0.2118 0.3668-0.3099 (   504 PWs)   bands (ev):

     8.1153   8.1153   9.3337   9.3337   9.6831   9.6832  10.6215  10.6215
    11.8452  11.8452  13.0734  13.0734

          k = 0.2118 0.6114 0.0000 (   486 PWs)   bands (ev):

     8.3492   8.5232   8.6093   9.6194   9.7489   9.8197  10.4305  11.5156
    11.6019  11.8249  15.4108  16.7046

          k = 0.2118 0.6114-0.3099 (   484 PWs)   bands (ev):

     8.2979   8.2980   9.1495   9.1495   9.9628   9.9628  10.9122  10.9122
    11.8069  11.8069  16.2973  16.2974

          k = 0.2118-0.1223-0.0000 (   514 PWs)   bands (ev):

     5.5435   8.3148   9.4333   9.4990   9.9396  10.4439  10.4792  10.4944
    10.6668  10.8516  11.6887  15.2694

          k = 0.2118-0.1223-0.3099 (   510 PWs)   bands (ev):

     7.1935   7.1935   9.2670   9.2670   9.8923   9.8923  10.5040  10.5041
    11.3092  11.3092  11.7475  11.7475

          k = 0.4236-0.2446-0.0000 (   488 PWs)   bands (ev):

     7.7683   8.1725   8.3175   9.9462   9.9700  10.0489  10.2748  11.7315
    11.7915  11.8841  12.4390  17.8301

          k = 0.4236-0.2446-0.3099 (   494 PWs)   bands (ev):

     7.7859   7.7859   8.8965   8.8965  10.7912  10.7912  11.2443  11.2443
    11.8753  11.8753  13.1642  13.1643

          k = 0.4236-0.0000-0.0000 (   489 PWs)   bands (ev):

     7.6033   8.6299   8.9062   8.9514   9.7773  10.0447  10.3303  10.8034
    11.5921  11.6810  12.3406  18.5131

          k = 0.4236-0.0000 0.3099 (   504 PWs)   bands (ev):

     8.1153   8.1153   9.3337   9.3337   9.6832   9.6832  10.6215  10.6215
    11.8452  11.8453  13.0734  13.0734

[...]
               b(1) = (  1.058589  0.611169 -0.000000 )  
               b(2) = ( -0.000000  1.222339 -0.000000 )  
               b(3) = (  0.000000 -0.000000  0.621336 )  


     PseudoPot. # 1 for Fe read from file:
     /home/bond/Software/QE/qe-7.4.1/pseudo/Fe.pbe-nd-rrkjus.UPF
     MD5 check sum: 398036227a04b607635f6f5e8dfd8242
     Pseudo is Ultrasoft + core correction, Zval =  8.0
     Generated by new atomic code, or converted to UPF format
     Using radial grid of  957 points,  6 beta functions with: 
                l(1) =   0
                l(2) =   0
                l(3) =   1
                l(4) =   1
                l(5) =   2
                l(6) =   2
     Q(r) pseudized with 0 coefficients 


     atomic species   valence    mass     pseudopotential
     Fe                8.00    55.84500     Fe( 1.00)

     Starting magnetic structure 
     atomic species   magnetization
     Fe              0.413

      4 Sym. Ops. (no inversion) found



   Cartesian axes

     site n.     atom                  positions (alat units)
         1        Fe     tau(   1) = (   0.0000000   0.0000041   0.0000000  )
         2        Fe     tau(   2) = (  -0.0000000   0.5453999   0.8047174  )

     number of k points=    18  Methfessel-Paxton smearing, width (Ry)=  0.0200
                       cart. coord. in units 2pi/alat
        k(    1) = (   0.0000000   0.0000000   0.0000000), wk =   0.0200000
        k(    2) = (  -0.0000000   0.0000000  -0.3106681), wk =   0.0200000
        k(    3) = (  -0.0000000   0.2444678  -0.0000000), wk =   0.0400000
        k(    4) = (  -0.0000000   0.2444678  -0.3106681), wk =   0.0400000
        k(    5) = (  -0.0000000   0.4889356  -0.0000000), wk =   0.0400000
        k(    6) = (  -0.0000000   0.4889356  -0.3106681), wk =   0.0400000
        k(    7) = (   0.2117178   0.3667017  -0.0000000), wk =   0.0800000
        k(    8) = (   0.2117178   0.3667017  -0.3106681), wk =   0.0800000
        k(    9) = (   0.2117178   0.6111694  -0.0000000), wk =   0.0400000
        k(   10) = (   0.2117178   0.6111694  -0.3106681), wk =   0.0400000
        k(   11) = (   0.2117178  -0.1222339   0.0000000), wk =   0.0800000
        k(   12) = (   0.2117178  -0.1222339  -0.3106681), wk =   0.0800000
        k(   13) = (   0.4234356  -0.2444678   0.0000000), wk =   0.0800000
        k(   14) = (   0.4234356  -0.2444678  -0.3106681), wk =   0.0800000
        k(   15) = (   0.4234356  -0.0000000   0.0000000), wk =   0.0400000
        k(   16) = (   0.4234356  -0.0000000   0.3106681), wk =   0.0400000
        k(   17) = (   0.4234356  -0.4889356   0.0000000), wk =   0.0800000
        k(   18) = (   0.4234356  -0.4889356  -0.3106681), wk =   0.0800000

     Dense  grid:    14451 G-vectors     FFT dimensions: (  27,  27,  45)

     Smooth grid:     3695 G-vectors     FFT dimensions: (  18,  18,  30)

     Estimated max dynamical RAM per process >      33.79 MB

     Estimated total dynamical RAM >      67.59 MB

     Check: negative core charge=   -0.000005
     Generating pointlists ...

     Initial potential from superposition of free atoms

     starting charge      15.9987, renormalised to      16.0000
     Starting wfcs are   12 randomized atomic wfcs

     total cpu time spent up to now is       28.6 secs

     Self-consistent Calculation

     iteration #  1     ecut=    30.00 Ry     beta= 0.50
     Davidson diagonalization with overlap
     c_bands:  1 eigenvalues not converged
     c_bands:  1 eigenvalues not converged
     c_bands:  1 eigenvalues not converged
     c_bands:  1 eigenvalues not converged
     c_bands:  1 eigenvalues not converged
     c_bands:  1 eigenvalues not converged
     c_bands:  1 eigenvalues not converged
     c_bands:  1 eigenvalues not converged
     ethr =  1.00E-06,  avg # of iterations = 15.8

     total cpu time spent up to now is       29.5 secs

     total energy              =    -111.31768954 Ry
     estimated scf accuracy    <       0.67276212 Ry

     total magnetization       =     5.25 Bohr mag/cell
     absolute magnetization    =     5.25 Bohr mag/cell

     iteration #  2     ecut=    30.00 Ry     beta= 0.50
     Davidson diagonalization with overlap
     ethr =  4.20E-03,  avg # of iterations =  2.4

     total cpu time spent up to now is       29.8 secs

     total energy              =    -111.54591449 Ry
     estimated scf accuracy    <       0.14087705 Ry

     total magnetization       =     5.33 Bohr mag/cell
     absolute magnetization    =     5.37 Bohr mag/cell

     iteration #  3     ecut=    30.00 Ry     beta= 0.50
     Davidson diagonalization with overlap
     ethr =  8.80E-04,  avg # of iterations =  1.4

     total cpu time spent up to now is       30.0 secs

     total energy              =    -111.56817634 Ry
     estimated scf accuracy    <       0.00833892 Ry

     total magnetization       =     5.34 Bohr mag/cell
     absolute magnetization    =     5.39 Bohr mag/cell

     iteration #  4     ecut=    30.00 Ry     beta= 0.50
     Davidson diagonalization with overlap
     ethr =  5.21E-05,  avg # of iterations =  3.3

     total cpu time spent up to now is       30.3 secs

     total energy              =    -111.57455788 Ry
     estimated scf accuracy    <       0.01269494 Ry

     total magnetization       =     5.31 Bohr mag/cell
     absolute magnetization    =     5.50 Bohr mag/cell

     iteration #  5     ecut=    30.00 Ry     beta= 0.50
     Davidson diagonalization with overlap
     ethr =  5.21E-05,  avg # of iterations =  1.6

     total cpu time spent up to now is       30.6 secs

     total energy              =    -111.57374311 Ry
     estimated scf accuracy    <       0.01344829 Ry

     total magnetization       =     5.33 Bohr mag/cell
     absolute magnetization    =     5.53 Bohr mag/cell

     iteration #  6     ecut=    30.00 Ry     beta= 0.50
     Davidson diagonalization with overlap
     ethr =  5.21E-05,  avg # of iterations =  2.5

     total cpu time spent up to now is       30.9 secs

     total energy              =    -111.57549181 Ry
     estimated scf accuracy    <       0.00253102 Ry

     total magnetization       =     5.35 Bohr mag/cell
     absolute magnetization    =     5.59 Bohr mag/cell

     iteration #  7     ecut=    30.00 Ry     beta= 0.50
     Davidson diagonalization with overlap
     ethr =  1.58E-05,  avg # of iterations =  1.6

     total cpu time spent up to now is       31.1 secs

     total energy              =    -111.57576269 Ry
     estimated scf accuracy    <       0.00012087 Ry

     total magnetization       =     5.35 Bohr mag/cell
     absolute magnetization    =     5.59 Bohr mag/cell

     iteration #  8     ecut=    30.00 Ry     beta= 0.50
     Davidson diagonalization with overlap
     ethr =  7.55E-07,  avg # of iterations =  3.2

     total cpu time spent up to now is       31.4 secs

     total energy              =    -111.57581586 Ry
     estimated scf accuracy    <       0.00000788 Ry

     total magnetization       =     5.35 Bohr mag/cell
     absolute magnetization    =     5.59 Bohr mag/cell

     iteration #  9     ecut=    30.00 Ry     beta= 0.50
     Davidson diagonalization with overlap
     ethr =  4.93E-08,  avg # of iterations =  5.2

     total cpu time spent up to now is       31.7 secs

     total energy              =    -111.57582635 Ry
     estimated scf accuracy    <       0.00000138 Ry

     total magnetization       =     5.35 Bohr mag/cell
     absolute magnetization    =     5.59 Bohr mag/cell

     iteration # 10     ecut=    30.00 Ry     beta= 0.50
     Davidson diagonalization with overlap
     ethr =  8.61E-09,  avg # of iterations =  4.8

     total cpu time spent up to now is       32.1 secs

     total energy              =    -111.57582579 Ry
     estimated scf accuracy    <       0.00000311 Ry

     total magnetization       =     5.35 Bohr mag/cell
     absolute magnetization    =     5.59 Bohr mag/cell

     iteration # 11     ecut=    30.00 Ry     beta= 0.50
     Davidson diagonalization with overlap
     ethr =  8.61E-09,  avg # of iterations =  3.4

     total cpu time spent up to now is       32.4 secs

     total energy              =    -111.57582680 Ry
     estimated scf accuracy    <       0.00000061 Ry

     total magnetization       =     5.35 Bohr mag/cell
     absolute magnetization    =     5.59 Bohr mag/cell

     iteration # 12     ecut=    30.00 Ry     beta= 0.50
     Davidson diagonalization with overlap
     ethr =  3.81E-09,  avg # of iterations =  2.1

     total cpu time spent up to now is       32.6 secs

     total energy              =    -111.57582694 Ry
     estimated scf accuracy    <          2.9E-09 Ry

     total magnetization       =     5.35 Bohr mag/cell
     absolute magnetization    =     5.59 Bohr mag/cell

     iteration # 13     ecut=    30.00 Ry     beta= 0.50
     Davidson diagonalization with overlap
     ethr =  1.84E-11,  avg # of iterations = 10.7

     total cpu time spent up to now is       33.3 secs

     total energy              =    -111.57582697 Ry
     estimated scf accuracy    <          8.6E-09 Ry

     total magnetization       =     5.35 Bohr mag/cell
     absolute magnetization    =     5.59 Bohr mag/cell

     iteration # 14     ecut=    30.00 Ry     beta= 0.50
     Davidson diagonalization with overlap
     ethr =  1.84E-11,  avg # of iterations =  2.6

     Magnetic moment per site  (integrated on atomic sphere of radius R)
     atom   1 (R=0.390)  charge=  6.5871  magn=  2.7228
     atom   2 (R=0.390)  charge=  6.5884  magn=  2.7228

     total cpu time spent up to now is       33.7 secs

     End of self-consistent calculation

 ------ SPIN UP ------------


          k = 0.0000 0.0000 0.0000 (   441 PWs)   bands (ev):

     4.2672   7.6401   9.8314  10.0763  10.0764  10.3211  10.3212  10.7721
    10.7721  11.6451  11.6451  12.0603

          k =-0.0000 0.0000-0.3107 (   458 PWs)   bands (ev):

     6.2093   6.2093   9.6444   9.6445  10.0501  10.0502  10.0502  10.0502
    11.3677  11.3677  11.3677  11.3677

          k =-0.0000 0.2445-0.0000 (   459 PWs)   bands (ev):

     5.5614   8.3366   9.4666   9.5227   9.9727  10.4671  10.5107  10.5315
    10.6908  10.8788  11.7274  15.3237

          k =-0.0000 0.2445-0.3107 (   450 PWs)   bands (ev):

     7.2197   7.2197   9.2952   9.2952   9.9204   9.9204  10.5261  10.5261
    11.3434  11.3434  11.7871  11.7871

          k =-0.0000 0.4889-0.0000 (   462 PWs)   bands (ev):

     7.7882   8.1945   8.3452   9.9707  10.0074  10.0698  10.3034  11.7727
    11.8140  11.9090  12.4694  17.8673

          k =-0.0000 0.4889-0.3107 (   466 PWs)   bands (ev):

     7.8085   7.8085   8.9264   8.9264  10.8196  10.8196  11.2734  11.2734
    11.9003  11.9004  13.1992  13.1992

          k = 0.2117 0.3667-0.0000 (   452 PWs)   bands (ev):

     7.6203   8.6579   8.9250   8.9729   9.8048  10.0772  10.3594  10.8415
    11.6348  11.7067  12.3648  18.5710

          k = 0.2117 0.3667-0.3107 (   460 PWs)   bands (ev):

     8.1389   8.1389   9.3598   9.3598   9.7107   9.7107  10.6502  10.6502
    11.8793  11.8793  13.1075  13.1075

          k = 0.2117 0.6112-0.0000 (   456 PWs)   bands (ev):

     8.3727   8.5438   8.6288   9.6367   9.7743   9.8544  10.4637  11.5607
    11.6345  11.8573  15.4297  16.7252

          k = 0.2117 0.6112-0.3107 (   464 PWs)   bands (ev):

     8.3206   8.3206   9.1764   9.1764   9.9900   9.9900  10.9400  10.9400
    11.8418  11.8418  16.3228  16.3228

          k = 0.2117-0.1222 0.0000 (   459 PWs)   bands (ev):

     5.5615   8.3366   9.4666   9.5228   9.9727  10.4671  10.5108  10.5315
    10.6907  10.8787  11.7274  15.3237

          k = 0.2117-0.1222-0.3107 (   450 PWs)   bands (ev):

     7.2197   7.2197   9.2952   9.2952   9.9205   9.9205  10.5261  10.5261
    11.3434  11.3434  11.7871  11.7871

          k = 0.4234-0.2445 0.0000 (   462 PWs)   bands (ev):

     7.7882   8.1945   8.3452   9.9708  10.0075  10.0697  10.3034  11.7727
    11.8141  11.9090  12.4694  17.8675

          k = 0.4234-0.2445-0.3107 (   466 PWs)   bands (ev):

     7.8085   7.8085   8.9264   8.9264  10.8196  10.8196  11.2734  11.2734
    11.9004  11.9004  13.1993  13.1993

          k = 0.4234-0.0000 0.0000 (   452 PWs)   bands (ev):

     7.6203   8.6579   8.9250   8.9729   9.8047  10.0772  10.3594  10.8415
    11.6348  11.7067  12.3649  18.5711

          k = 0.4234-0.0000 0.3107 (   460 PWs)   bands (ev):

     8.1389   8.1389   9.3598   9.3598   9.7107   9.7107  10.6502  10.6502
    11.8794  11.8794  13.1075  13.1075

          k = 0.4234-0.4889 0.0000 (   456 PWs)   bands (ev):

     8.3726   8.5437   8.6288   9.6368   9.7743   9.8544  10.4637  11.5607
    11.6345  11.8573  15.4298  16.7253

          k = 0.4234-0.4889-0.3107 (   464 PWs)   bands (ev):

     8.3206   8.3206   9.1764   9.1764   9.9900   9.9900  10.9401  10.9401
    11.8418  11.8418  16.3229  16.3229

 ------ SPIN DOWN ----------


          k = 0.0000 0.0000 0.0000 (   441 PWs)   bands (ev):

     4.4497   9.1336  12.1185  12.4271  12.8544  12.8546  13.1744  13.1745
    13.9373  13.9374  14.9758  14.9759

          k =-0.0000 0.0000-0.3107 (   458 PWs)   bands (ev):

     6.4885   6.4886  11.8487  11.8487  12.8544  12.8544  12.8546  12.8546
    14.6352  14.6352  14.6353  14.6353

          k =-0.0000 0.2445-0.0000 (   459 PWs)   bands (ev):

     5.7682  10.0448  11.1652  11.9875  12.6410  13.2595  13.3978  13.5400
    13.5704  13.8226  15.0889  17.1152

          k =-0.0000 0.2445-0.3107 (   450 PWs)   bands (ev):

     7.6197   7.6197  11.6900  11.6900  12.4525  12.4525  13.4338  13.4338
    14.5584  14.5584  14.8094  14.8094

          k =-0.0000 0.4889-0.0000 (   462 PWs)   bands (ev):

     8.7611  10.2855  10.4366  11.5412  12.6389  12.7478  13.0345  14.9429
    15.0009  15.0491  15.1486  19.1317

          k =-0.0000 0.4889-0.3107 (   466 PWs)   bands (ev):

     9.3750   9.3750  11.2452  11.2452  13.0768  13.0768  13.9226  13.9226
    15.0598  15.0598  15.2994  15.2994

          k = 0.2117 0.3667-0.0000 (   452 PWs)   bands (ev):

     8.0421  10.6737  10.9275  11.1902  12.6093  12.6134  13.2048  13.6610
    14.7337  14.9712  15.2168  19.9940

          k = 0.2117 0.3667-0.3107 (   460 PWs)   bands (ev):

     9.2732   9.2732  11.5226  11.5227  12.1019  12.1019  13.6654  13.6654
    15.0283  15.0284  15.4853  15.4853

          k = 0.2117 0.6112-0.0000 (   456 PWs)   bands (ev):

    10.2184  10.5356  10.6165  11.1308  12.4435  12.5471  13.0622  14.6235
    14.8776  14.9073  17.2493  18.4454

          k = 0.2117 0.6112-0.3107 (   464 PWs)   bands (ev):

    10.2351  10.2351  11.4993  11.4993  12.0711  12.0711  13.7708  13.7708
    14.9400  14.9400  17.7628  17.7628

          k = 0.2117-0.1222 0.0000 (   459 PWs)   bands (ev):

     5.7682  10.0448  11.1652  11.9876  12.6411  13.2595  13.3979  13.5399
    13.5703  13.8226  15.0889  17.1152

          k = 0.2117-0.1222-0.3107 (   450 PWs)   bands (ev):

     7.6197   7.6197  11.6900  11.6900  12.4526  12.4526  13.4337  13.4337
    14.5583  14.5583  14.8095  14.8095

          k = 0.4234-0.2445 0.0000 (   462 PWs)   bands (ev):

     8.7611  10.2855  10.4366  11.5412  12.6390  12.7479  13.0344  14.9428
    15.0009  15.0491  15.1486  19.1318

          k = 0.4234-0.2445-0.3107 (   466 PWs)   bands (ev):

     9.3750   9.3750  11.2452  11.2452  13.0768  13.0768  13.9225  13.9225
    15.0598  15.0598  15.2994  15.2994

          k = 0.4234-0.0000 0.0000 (   452 PWs)   bands (ev):

     8.0422  10.6737  10.9275  11.1902  12.6093  12.6134  13.2048  13.6610
    14.7337  14.9712  15.2168  19.9941

          k = 0.4234-0.0000 0.3107 (   460 PWs)   bands (ev):

     9.2732   9.2732  11.5227  11.5227  12.1019  12.1019  13.6654  13.6654
    15.0283  15.0284  15.4853  15.4853

          k = 0.4234-0.4889 0.0000 (   456 PWs)   bands (ev):

    10.2184  10.5356  10.6165  11.1308  12.4436  12.5470  13.0622  14.6234
    14.8776  14.9073  17.2493  18.4455

          k = 0.4234-0.4889-0.3107 (   464 PWs)   bands (ev):

    10.2351  10.2351  11.4993  11.4993  12.0711  12.0711  13.7708  13.7708
    14.9400  14.9400  17.7629  17.7629

     the Fermi energy is    12.6950 ev

!    total energy              =    -111.57582697 Ry
     estimated scf accuracy    <          3.3E-10 Ry
     smearing contrib. (-TS)   =       0.00012395 Ry
     internal energy E=F+TS    =    -111.57595092 Ry

     The total energy is F=E-TS. E is the sum of the following terms:
     one-electron contribution =      12.27074983 Ry
     hartree contribution      =      13.94591715 Ry
     xc contribution           =     -52.92900146 Ry
     ewald contribution        =     -84.86361645 Ry

     total magnetization       =     5.35 Bohr mag/cell
     absolute magnetization    =     5.59 Bohr mag/cell

     convergence has been achieved in  14 iterations

     Forces acting on atoms (cartesian axes, Ry/au):

     atom    1 type  1   force =    -0.00000000    0.00000250   -0.00000000
     atom    2 type  1   force =     0.00000000   -0.00000250    0.00000000

     Total force =     0.000004     Total SCF correction =     0.000002
     SCF correction compared to forces is large: reduce conv_thr to get better values


     Computing stress (Cartesian axis) and pressure

          total   stress  (Ry/bohr**3)                   (kbar)     P=       -0.96
  -0.00001179   0.00000000   0.00000000           -1.73        0.00        0.00
   0.00000000  -0.00001169  -0.00000000            0.00       -1.72       -0.00
   0.00000000  -0.00000000   0.00000383            0.00       -0.00        0.56

     Message from routine punch:
     Nothing written, as per user request (disk_io='none')

     init_run     :      0.74s CPU      0.79s WALL (       2 calls)
     electrons    :     26.48s CPU     29.28s WALL (       9 calls)
     update_pot   :      0.13s CPU      0.14s WALL (       7 calls)
     forces       :      0.55s CPU      0.56s WALL (       9 calls)
     stress       :      2.88s CPU      2.95s WALL (       9 calls)

     Called by init_run:
     wfcinit      :      0.14s CPU      0.16s WALL (       2 calls)
     potinit      :      0.16s CPU      0.17s WALL (       2 calls)
     hinit0       :      0.37s CPU      0.38s WALL (       2 calls)

     Called by electrons:
     c_bands      :     17.26s CPU     19.42s WALL (      86 calls)
     sum_band     :      5.78s CPU      6.27s WALL (      86 calls)
     v_of_rho     :      1.44s CPU      1.52s WALL (      93 calls)
     newd         :      2.14s CPU      2.19s WALL (      93 calls)
     mix_rho      :      0.10s CPU      0.11s WALL (      86 calls)

     Called by c_bands:
     init_us_2    :      0.41s CPU      0.46s WALL (    6912 calls)
     cegterg      :     16.09s CPU     18.10s WALL (    3096 calls)

     Called by *egterg:
     cdiaghg      :      1.45s CPU      1.61s WALL (   12451 calls)
     h_psi        :     13.07s CPU     14.74s WALL (   12847 calls)
     s_psi        :      0.26s CPU      0.29s WALL (   12847 calls)
     g_psi        :      0.07s CPU      0.08s WALL (    9679 calls)

     Called by h_psi:
     h_psi:calbec :      0.48s CPU      0.54s WALL (   12847 calls)
     vloc_psi     :     12.22s CPU     13.78s WALL (   12847 calls)
     add_vuspsi   :      0.28s CPU      0.31s WALL (   12847 calls)

     General routines
     calbec       :      0.79s CPU      0.88s WALL (   21451 calls)
     fft          :      0.75s CPU      0.78s WALL (    2678 calls)
     ffts         :      0.14s CPU      0.14s WALL (     358 calls)
     fftw         :     12.32s CPU     13.97s WALL (  258468 calls)
     interpolate  :      0.17s CPU      0.18s WALL (     186 calls)

     Parallel routines

     PWSCF        :     31.09s CPU     34.03s WALL


   This run was terminated on:  17:52:21  20Oct2025            

=------------------------------------------------------------------------------=
   JOB DONE.
=------------------------------------------------------------------------------=
