
     Program PWSCF v.7.4.1 starts on 21Oct2025 at 17:32:52 

     This program is part of the open-source Quantum ESPRESSO suite
     for quantum simulation of materials; please cite
         "P. Giannozzi et al., J. Phys.:Condens. Matter 21 395502 (2009);
         "P. Giannozzi et al., J. Phys.:Condens. Matter 29 465901 (2017);
         "P. Giannozzi et al., J. Chem. Phys. 152 154105 (2020);
          URL http://www.quantum-espresso.org", 
     in publications or presentations arising from this work. More details at
     http://www.quantum-espresso.org/quote

     Parallel version (MPI), running on     2 processors

     MPI processes distributed on     1 nodes
     188 MiB available memory on the printing compute node when the environment starts

     Waiting for input...
     Reading input from standard input

     Current dimensions of program PWSCF are:
     Max number of different atomic species (ntypx) = 10
     Max number of k-points (npk) =  40000
     Max angular momentum in pseudopotentials (lmaxx) =  4
     file Cu.pz-d-rrkjus.UPF: wavefunction(s)  3D renormalized
     Message from routine setup:
     using ibrav=0 with symmetry is DISCOURAGED, use correct ibrav instead

     R & G space division:  proc/nbgrp/npool/nimage =       2
     Subspace diagonalization in iterative solution of the eigenvalue problem:
     a serial algorithm will be used


     Parallelization info
     --------------------
     sticks:   dense  smooth     PW     G-vecs:    dense   smooth      PW
     Min         255     126     45                 3815     1365     280
     Max         256     127     46                 3816     1368     281
     Sum         511     253     91                 7631     2733     561

     Using Slab Decomposition



     bravais-lattice index     =            0
     lattice parameter (alat)  =       4.8105  a.u.
     unit-cell volume          =      78.7126 (a.u.)^3
     number of atoms/cell      =            1
     number of atomic types    =            1
     number of electrons       =        11.00
     number of Kohn-Sham states=           10
     kinetic-energy cutoff     =      40.0000  Ry
     charge density cutoff     =     320.0000  Ry
     scf convergence threshold =      1.0E-07
     mixing beta               =       0.7000
     number of iterations used =            8  plain     mixing
     energy convergence thresh.=      1.0E-04
     force convergence thresh. =      1.0E-03
     press convergence thresh. =      5.0E-01
     Exchange-correlation=  SLA  PZ   NOGX NOGC
                           (   1   1   0   0   0   0   0)
     nstep                     =           50


     celldm(1)=   4.810457  celldm(2)=   0.000000  celldm(3)=   0.000000
     celldm(4)=   0.000000  celldm(5)=   0.000000  celldm(6)=   0.000000

     crystal axes: (cart. coord. in units of alat)
               a(1) = (   0.000000   0.707107   0.707107 )  
               a(2) = (   0.707107   0.000000   0.707107 )  
               a(3) = (   0.707107   0.707107   0.000000 )  

     reciprocal axes: (cart. coord. in units 2 pi/alat)
               b(1) = ( -0.707107  0.707107  0.707107 )  
               b(2) = (  0.707107 -0.707107  0.707107 )  
               b(3) = (  0.707107  0.707107 -0.707107 )  


     PseudoPot. # 1 for Cu read from file:
     /home/bond/Software/QE/qe-7.4.1/pseudo/Cu.pz-d-rrkjus.UPF
     MD5 check sum: fd38ae683e239c95a66f426e1f8e5fc7
     Pseudo is Ultrasoft, Zval = 11.0
     Generated by new atomic code, or converted to UPF format
     Using radial grid of  899 points,  3 beta functions with: 
                l(1) =   2
                l(2) =   2
                l(3) =   1
     Q(r) pseudized with 0 coefficients 


     atomic species   valence    mass     pseudopotential
     Cu               11.00    63.54600     Cu( 1.00)

     48 Sym. Ops., with inversion, found



   Cartesian axes

     site n.     atom                  positions (alat units)
         1        Cu     tau(   1) = (   0.0000000   0.0000000   0.0000000  )

     number of k points=    28  Methfessel-Paxton smearing, width (Ry)=  0.0200
                       cart. coord. in units 2pi/alat
        k(    1) = (   0.0589256   0.0589256   0.0589256), wk =   0.0185185
        k(    2) = (   0.1767767   0.1767767  -0.0589256), wk =   0.0555556
        k(    3) = (   0.2946278   0.2946278  -0.1767767), wk =   0.0555556
        k(    4) = (  -0.2946278  -0.2946278   0.4124790), wk =   0.0555556
        k(    5) = (  -0.1767767  -0.1767767   0.2946278), wk =   0.0555556
        k(    6) = (  -0.0589256  -0.0589256   0.1767767), wk =   0.0555556
        k(    7) = (   0.2946278   0.0589256   0.0589256), wk =   0.0555556
        k(    8) = (   0.4124790   0.1767767  -0.0589256), wk =   0.1111111
        k(    9) = (  -0.1767767  -0.4124790   0.5303301), wk =   0.1111111
        k(   10) = (  -0.0589256  -0.2946278   0.4124790), wk =   0.1111111
        k(   11) = (   0.0589256  -0.1767767   0.2946278), wk =   0.1111111
        k(   12) = (   0.5303301   0.0589256   0.0589256), wk =   0.0555556
        k(   13) = (  -0.0589256  -0.5303301   0.6481812), wk =   0.1111111
        k(   14) = (   0.0589256  -0.4124790   0.5303301), wk =   0.1111111
        k(   15) = (   0.1767767  -0.2946278   0.4124790), wk =   0.1111111
        k(   16) = (  -0.6481812   0.0589256   0.0589256), wk =   0.0555556
        k(   17) = (  -0.5303301   0.1767767  -0.0589256), wk =   0.1111111
        k(   18) = (  -0.4124790   0.0589256   0.0589256), wk =   0.0555556
        k(   19) = (   0.1767767   0.1767767   0.1767767), wk =   0.0185185
        k(   20) = (   0.2946278   0.2946278   0.0589256), wk =   0.0555556
        k(   21) = (  -0.2946278  -0.2946278   0.6481812), wk =   0.0555556
        k(   22) = (  -0.1767767  -0.1767767   0.5303301), wk =   0.0555556
        k(   23) = (   0.4124790   0.1767767   0.1767767), wk =   0.0555556
        k(   24) = (  -0.1767767  -0.4124790   0.7660323), wk =   0.1111111
        k(   25) = (  -0.0589256  -0.2946278   0.6481812), wk =   0.1111111
        k(   26) = (  -0.7660323   0.1767767   0.1767767), wk =   0.0555556
        k(   27) = (   0.2946278   0.2946278   0.2946278), wk =   0.0185185
        k(   28) = (  -0.2946278  -0.2946278   0.8838835), wk =   0.0555556

     Dense  grid:     7631 G-vectors     FFT dimensions: (  27,  27,  27)

     Smooth grid:     2733 G-vectors     FFT dimensions: (  20,  20,  20)

     Estimated max dynamical RAM per process >      10.91 MB

     Estimated total dynamical RAM >      21.82 MB

     Initial potential from superposition of free atoms

     starting charge      10.9997, renormalised to      11.0000
     Starting wfcs are    6 randomized atomic wfcs +    4 random wfcs

     total cpu time spent up to now is        0.9 secs

     Self-consistent Calculation

     iteration #  1     ecut=    40.00 Ry     beta= 0.70
     Davidson diagonalization with overlap
     ethr =  1.00E-02,  avg # of iterations =  5.5

     total cpu time spent up to now is        1.1 secs

     total energy              =     -87.72726351 Ry
     estimated scf accuracy    <       0.24614113 Ry

     iteration #  2     ecut=    40.00 Ry     beta= 0.70
     Davidson diagonalization with overlap
     ethr =  2.24E-03,  avg # of iterations =  2.0

     total cpu time spent up to now is        1.3 secs

     total energy              =     -87.80917756 Ry
     estimated scf accuracy    <       0.20719085 Ry

     iteration #  3     ecut=    40.00 Ry     beta= 0.70
     Davidson diagonalization with overlap
     ethr =  1.88E-03,  avg # of iterations =  1.0

     total cpu time spent up to now is        1.4 secs

     total energy              =     -87.84172034 Ry
     estimated scf accuracy    <       0.00096623 Ry

     iteration #  4     ecut=    40.00 Ry     beta= 0.70
     Davidson diagonalization with overlap
     ethr =  8.78E-06,  avg # of iterations =  3.0

     total cpu time spent up to now is        1.6 secs

     total energy              =     -87.84210633 Ry
     estimated scf accuracy    <       0.00004345 Ry

     iteration #  5     ecut=    40.00 Ry     beta= 0.70
     Davidson diagonalization with overlap
     ethr =  3.95E-07,  avg # of iterations =  1.3

     total cpu time spent up to now is        1.7 secs

     total energy              =     -87.84210389 Ry
     estimated scf accuracy    <       0.00001037 Ry

     iteration #  6     ecut=    40.00 Ry     beta= 0.70
     Davidson diagonalization with overlap
     ethr =  9.43E-08,  avg # of iterations =  1.0

     total cpu time spent up to now is        1.8 secs

     End of self-consistent calculation

          k = 0.0589 0.0589 0.0589 (   332 PWs)   bands (ev):

     4.8670  10.6193  10.7191  10.7191  11.4983  11.4983  35.5253  38.4077
    39.0679  39.0679

          k = 0.1768 0.1768-0.0589 (   327 PWs)   bands (ev):

     6.1590  10.3936  10.8501  10.9056  11.3539  11.6794  29.6331  33.3007
    39.5744  40.5914

          k = 0.2946 0.2946-0.1768 (   338 PWs)   bands (ev):

     8.3692  10.6701  10.7788  10.7925  11.7737  12.3771  21.7003  32.5280
    37.1366  37.4174

          k =-0.2946-0.2946 0.4125 (   340 PWs)   bands (ev):

     8.7917  10.5551  10.7267  11.4636  12.1053  13.6064  18.1316  33.6241
    34.7485  35.7846

          k =-0.1768-0.1768 0.2946 (   336 PWs)   bands (ev):

     7.7343  10.4061  10.7393  10.8720  11.8127  11.8796  24.1232  34.2647
    35.5192  37.1834

          k =-0.0589-0.0589 0.1768 (   331 PWs)   bands (ev):

     5.5289  10.4514  10.8511  10.8563  11.3537  11.5897  32.6304  35.8077
    36.6827  39.7131

          k = 0.2946 0.0589 0.0589 (   334 PWs)   bands (ev):

     6.7592  10.1431  10.9421  11.1174  11.3621  11.7471  30.1002  32.8202
    34.7757  36.1222

          k = 0.4125 0.1768-0.0589 (   332 PWs)   bands (ev):

     8.5965   9.9193  10.6176  11.3542  11.7938  12.6285  25.1393  28.7578
    31.0728  36.7812

          k =-0.1768-0.4125 0.5303 (   340 PWs)   bands (ev):

     9.4046  10.0725  10.6292  11.1647  12.0646  15.7983  18.7238  27.8221
    29.4518  37.0184

          k =-0.0589-0.2946 0.4125 (   336 PWs)   bands (ev):

     9.1730  10.1700  10.3571  11.2222  11.6940  13.6173  22.6951  26.5638
    32.1318  38.8490

          k = 0.0589-0.1768 0.2946 (   334 PWs)   bands (ev):

     7.3109  10.1936  10.7694  11.0746  11.4318  11.9903  27.1303  30.7906
    36.3799  38.3615

          k = 0.5303 0.0589 0.0589 (   331 PWs)   bands (ev):

     8.8603   9.4935  11.5611  11.7960  12.0951  13.1935  25.6705  26.5116
    28.5905  33.1414

          k =-0.0589-0.5303 0.6482 (   340 PWs)   bands (ev):

     9.1891   9.5148  11.2301  11.8045  12.1873  16.5875  22.3003  23.0017
    26.5564  35.3678

          k = 0.0589-0.4125 0.5303 (   339 PWs)   bands (ev):

     9.7092   9.8400  10.4819  11.4054  11.9919  17.3549  19.3467  23.7770
    28.7839  36.7933

          k = 0.1768-0.2946 0.4125 (   336 PWs)   bands (ev):

     8.9476  10.4301  10.7731  10.9303  11.9925  13.6181  19.8794  30.6738
    32.6671  37.3243

          k =-0.6482 0.0589 0.0589 (   338 PWs)   bands (ev):

     8.9085   9.3238  11.9455  11.9973  12.2069  15.3616  22.0036  25.6553
    27.6429  32.7692

          k =-0.5303 0.1768-0.0589 (   337 PWs)   bands (ev):

     9.1836   9.6621  10.8656  11.6636  12.0508  14.2302  23.6968  26.1986
    27.3516  35.8229

          k =-0.4125 0.0589 0.0589 (   333 PWs)   bands (ev):

     8.1789   9.7921  10.9907  11.4606  11.8862  11.9296  28.0133  30.3676
    30.4625  33.9457

          k = 0.1768 0.1768 0.1768 (   332 PWs)   bands (ev):

     6.7324  10.4387  10.8330  10.8330  11.6034  11.6034  26.6066  37.1964
    37.1964  37.4695

          k = 0.2946 0.2946 0.0589 (   332 PWs)   bands (ev):

     8.2516  10.2310  10.6314  11.0536  11.4340  12.5601  24.6516  28.4167
    37.2086  37.6859

          k =-0.2946-0.2946 0.6482 (   339 PWs)   bands (ev):

     9.5418  10.1350  10.4078  11.2157  11.7791  15.1251  20.7445  24.8709
    32.7616  35.1981

          k =-0.1768-0.1768 0.5303 (   338 PWs)   bands (ev):

     9.3051   9.8482  10.7357  11.3310  12.1416  14.8686  20.7931  26.7468
    30.3105  34.0666

          k = 0.4125 0.1768 0.1768 (   334 PWs)   bands (ev):

     8.7627  10.1821  10.6113  11.0514  12.0790  12.8428  22.1830  31.5215
    31.9394  34.7979

          k =-0.1768-0.4125 0.7660 (   337 PWs)   bands (ev):

     9.6247   9.9396  10.3091  11.4543  11.9850  15.6197  21.2825  25.2932
    27.2895  39.7797

          k =-0.0589-0.2946 0.6482 (   340 PWs)   bands (ev):

     9.5554   9.8825  10.4774  11.5309  12.1798  18.3267  20.4836  23.2189
    24.7005  39.7430

          k =-0.7660 0.1768 0.1768 (   339 PWs)   bands (ev):

     9.4020   9.6570  10.9371  11.6032  12.0735  17.5156  19.9683  22.8541
    29.4668  33.7550

          k = 0.2946 0.2946 0.2946 (   338 PWs)   bands (ev):

     8.5417  10.6724  10.6724  11.9271  12.0228  12.0228  19.4605  36.2731
    36.4838  36.4838

          k =-0.2946-0.2946 0.8839 (   341 PWs)   bands (ev):

     9.1472  10.3291  10.8919  10.9376  12.0010  14.9132  18.4029  28.9878
    33.4372  35.3673

     the Fermi energy is    13.7212 ev

!    total energy              =     -87.84210570 Ry
     estimated scf accuracy    <       0.00000001 Ry
     smearing contrib. (-TS)   =      -0.00038935 Ry
     internal energy E=F+TS    =     -87.84171636 Ry

     The total energy is F=E-TS. E is the sum of the following terms:
     one-electron contribution =     -11.59551332 Ry
     hartree contribution      =      19.33765352 Ry
     xc contribution           =     -14.03642669 Ry
     ewald contribution        =     -81.54742986 Ry

     convergence has been achieved in   6 iterations


     Computing stress (Cartesian axis) and pressure

          total   stress  (Ry/bohr**3)                   (kbar)     P=      -66.19
  -0.00044993  -0.00000000   0.00000000          -66.19       -0.00        0.00
  -0.00000000  -0.00044993  -0.00000000           -0.00      -66.19       -0.00
   0.00000000  -0.00000000  -0.00044993            0.00       -0.00      -66.19


     BFGS Geometry Optimization
     Energy error            =      1.2E-03 Ry
     Gradient error          =      0.0E+00 Ry/Bohr
     Cell gradient error     =      6.6E+01 kbar

     number of scf cycles    =   1
     number of bfgs steps    =   0

     enthalpy           new  =     -87.8421057042 Ry

     new trust radius        =       0.0199587226 bohr
     new conv_thr            =       0.0000001000 Ry

     new unit-cell volume =     76.08623 a.u.^3 (    11.27482 Ang^3 )
     density =      9.35897 g/cm^3

CELL_PARAMETERS (angstrom)
  -0.000000000   1.779753349   1.779753349
   1.779753349  -0.000000000   1.779753349
   1.779753349   1.779753349  -0.000000000

ATOMIC_POSITIONS (angstrom)
Cu               0.0000000000        0.0000000000        0.0000000000    0   0   0


     Message from routine punch:
     Nothing written, as per user request (disk_io='none')
     NEW-OLD atomic charge density approx. for the potential
     New effective cutoffs (rho, wfc):  324.58   40.88

     total cpu time spent up to now is        2.0 secs

     Self-consistent Calculation

     iteration #  1     ecut=    40.00 Ry     beta= 0.70
     Davidson diagonalization with overlap
     ethr =  1.00E-06,  avg # of iterations =  4.2

     total cpu time spent up to now is        2.2 secs

     total energy              =     -87.84280954 Ry
     estimated scf accuracy    <       0.00002519 Ry

     iteration #  2     ecut=    40.00 Ry     beta= 0.70
     Davidson diagonalization with overlap
     ethr =  2.29E-07,  avg # of iterations =  2.0

     total cpu time spent up to now is        2.3 secs

     total energy              =     -87.84281518 Ry
     estimated scf accuracy    <       0.00001833 Ry

     iteration #  3     ecut=    40.00 Ry     beta= 0.70
     Davidson diagonalization with overlap
     ethr =  1.67E-07,  avg # of iterations =  1.0

     total cpu time spent up to now is        2.4 secs

     total energy              =     -87.84281897 Ry
     estimated scf accuracy    <       0.00000014 Ry

     iteration #  4     ecut=    40.00 Ry     beta= 0.70
     Davidson diagonalization with overlap
     ethr =  1.23E-09,  avg # of iterations =  1.8

     total cpu time spent up to now is        2.6 secs

     End of self-consistent calculation

          k = 0.0596 0.0596 0.0596 (   332 PWs)   bands (ev):

     5.2697  11.1574  11.2628  11.2628  12.0843  12.0843  36.6320  39.5167
    40.3201  40.3201

          k = 0.1788 0.1788-0.0596 (   327 PWs)   bands (ev):

     6.5914  10.9183  11.4002  11.4591  11.9313  12.2748  30.6490  34.3953
    40.7164  41.9159

          k = 0.2980 0.2980-0.1788 (   338 PWs)   bands (ev):

     8.8308  11.2101  11.3146  11.3393  12.3737  13.0017  22.5713  33.6029
    38.2271  38.6723

          k =-0.2980-0.2980 0.4172 (   340 PWs)   bands (ev):

     9.2510  11.0879  11.2698  12.0311  12.7235  14.2204  18.9630  34.6950
    35.9140  36.8990

          k =-0.1788-0.1788 0.2980 (   336 PWs)   bands (ev):

     8.1924  10.9289  11.2830  11.4233  12.4127  12.4856  25.0365  35.4115
    36.5540  38.4389

          k =-0.0596-0.0596 0.1788 (   331 PWs)   bands (ev):

     5.9474  10.9798  11.4015  11.4071  11.9313  12.1806  33.7020  36.9863
    37.7787  40.9081

          k = 0.2980 0.0596 0.0596 (   334 PWs)   bands (ev):

     7.2033  10.6544  11.4968  11.6819  11.9396  12.3464  31.1259  33.9238
    35.8149  37.2736

          k = 0.4172 0.1788-0.0596 (   332 PWs)   bands (ev):

     9.0667  10.4180  11.1548  11.9309  12.3939  13.2646  26.0642  29.7541
    32.1310  37.9444

          k =-0.1788-0.4172 0.5364 (   340 PWs)   bands (ev):

     9.8850  10.5746  11.1628  11.7308  12.6805  16.4881  19.5469  28.7998
    30.4839  38.1780

          k =-0.0596-0.2980 0.4172 (   336 PWs)   bands (ev):

     9.6548  10.6800  10.8788  11.7912  12.2893  14.2859  23.5725  27.5260
    33.2128  40.0500

          k = 0.0596-0.1788 0.2980 (   334 PWs)   bands (ev):

     7.7655  10.7071  11.3142  11.6368  12.0129  12.6015  28.0977  31.8347
    37.5100  39.5830

          k = 0.5364 0.0596 0.0596 (   331 PWs)   bands (ev):

     9.3151   9.9702  12.1448  12.3970  12.7129  13.8282  26.6061  27.4684
    29.5761  34.2208

          k =-0.0596-0.5364 0.6556 (   340 PWs)   bands (ev):

     9.6492   9.9926  11.7951  12.4055  12.8098  17.2928  23.1677  23.9039
    27.5109  36.5007

          k = 0.0596-0.4172 0.5364 (   339 PWs)   bands (ev):

    10.1997  10.3303  11.0086  11.9845  12.6037  18.0931  20.1515  24.6977
    29.7940  37.9549

          k = 0.1788-0.2980 0.4172 (   336 PWs)   bands (ev):

     9.4159  10.9535  11.3122  11.4829  12.6041  14.2690  20.7194  31.7063
    33.7616  38.4851

          k =-0.6556 0.0596 0.0596 (   338 PWs)   bands (ev):

     9.3565   9.7919  12.5507  12.6097  12.8306  16.0184  22.9020  26.5784
    28.5996  33.8430

          k =-0.5364 0.1788-0.0596 (   337 PWs)   bands (ev):

     9.6505  10.1472  11.4144  12.2565  12.6657  14.9034  24.5840  27.1486
    28.3377  36.9643

          k =-0.4172 0.0596 0.0596 (   333 PWs)   bands (ev):

     8.6399  10.2845  11.5479  12.0433  12.4886  12.5386  28.9917  31.4047
    31.4840  35.0435

          k = 0.1788 0.1788 0.1788 (   332 PWs)   bands (ev):

     7.1754  10.9646  11.3824  11.3824  12.1944  12.1944  27.5666  38.4230
    38.4230  38.5139

          k = 0.2980 0.2980 0.0596 (   332 PWs)   bands (ev):

     8.7212  10.7458  11.1674  11.6143  12.0155  13.1968  25.5705  29.4147
    38.4390  38.8149

          k =-0.2980-0.2980 0.6556 (   339 PWs)   bands (ev):

    10.0304  10.6405  10.9304  11.7846  12.3794  15.8264  21.5801  25.8074
    33.8686  36.3068

          k =-0.1788-0.1788 0.5364 (   338 PWs)   bands (ev):

     9.7790  10.3402  11.2774  11.9064  12.7618  15.5543  21.6344  27.7138
    31.3473  35.1760

          k = 0.4172 0.1788 0.1788 (   334 PWs)   bands (ev):

     9.2318  10.6916  11.1484  11.6120  12.6959  13.4792  23.0573  32.5590
    33.0220  35.9304

          k =-0.1788-0.4172 0.7747 (   337 PWs)   bands (ev):

    10.1096  10.4378  10.8295  12.0355  12.5964  16.3299  22.1250  26.2246
    28.2805  41.0036

          k =-0.0596-0.2980 0.6556 (   340 PWs)   bands (ev):

    10.0311  10.3794  11.0043  12.1170  12.8019  19.0825  21.2981  24.1161
    25.6484  40.9659

          k =-0.7747 0.1788 0.1788 (   339 PWs)   bands (ev):

     9.8738  10.1406  11.4867  12.1933  12.6899  18.2479  20.7752  23.7724
    30.4795  34.8618

          k = 0.2980 0.2980 0.2980 (   338 PWs)   bands (ev):

     8.9974  11.2128  11.2128  12.4852  12.6365  12.6365  20.3014  37.2663
    37.7116  37.7116

          k =-0.2980-0.2980 0.8939 (   341 PWs)   bands (ev):

     9.6191  10.8468  11.4343  11.4918  12.6135  15.5762  19.2300  29.9922
    34.5633  36.4687

     the Fermi energy is    14.3730 ev

!    total energy              =     -87.84281899 Ry
     estimated scf accuracy    <          3.6E-10 Ry
     smearing contrib. (-TS)   =      -0.00039299 Ry
     internal energy E=F+TS    =     -87.84242600 Ry

     The total energy is F=E-TS. E is the sum of the following terms:
     one-electron contribution =     -10.17084038 Ry
     hartree contribution      =      18.85838015 Ry
     xc contribution           =     -14.05484424 Ry
     ewald contribution        =     -82.47512152 Ry

     convergence has been achieved in   4 iterations


     Computing stress (Cartesian axis) and pressure

          total   stress  (Ry/bohr**3)                   (kbar)     P=      -13.60
  -0.00009244  -0.00000000  -0.00000000          -13.60       -0.00       -0.00
  -0.00000000  -0.00009244  -0.00000000           -0.00      -13.60       -0.00
  -0.00000000   0.00000000  -0.00009244           -0.00        0.00      -13.60

     Energy error            =      7.1E-04 Ry
     Gradient error          =      0.0E+00 Ry/Bohr
     Cell gradient error     =      1.4E+01 kbar

     number of scf cycles    =   2
     number of bfgs steps    =   1

     enthalpy           old  =     -87.8421057042 Ry
     enthalpy           new  =     -87.8428189863 Ry

     CASE: enthalpy          _new < enthalpy          _old

     new trust radius        =       0.0049884500 bohr
     new conv_thr            =       0.0000000010 Ry

     new unit-cell volume =     75.43540 a.u.^3 (    11.17837 Ang^3 )
     density =      9.43971 g/cm^3

CELL_PARAMETERS (angstrom)
  -0.000000000   1.774664232   1.774664232
   1.774664232  -0.000000000   1.774664232
   1.774664232   1.774664232  -0.000000000

ATOMIC_POSITIONS (angstrom)
Cu               0.0000000000        0.0000000000        0.0000000000    0   0   0


     Message from routine punch:
     Nothing written, as per user request (disk_io='none')
     NEW-OLD atomic charge density approx. for the potential
     New effective cutoffs (rho, wfc):  326.45   41.12

     total cpu time spent up to now is        2.8 secs

     Self-consistent Calculation

     iteration #  1     ecut=    40.00 Ry     beta= 0.70
     Davidson diagonalization with overlap
     ethr =  1.00E-06,  avg # of iterations =  3.0

     Threshold (ethr) on eigenvalues was too large:
     Diagonalizing with lowered threshold

     Davidson diagonalization with overlap
     ethr =  1.23E-08,  avg # of iterations =  1.2

     total cpu time spent up to now is        3.0 secs

     total energy              =     -87.84284053 Ry
     estimated scf accuracy    <       0.00000141 Ry

     iteration #  2     ecut=    40.00 Ry     beta= 0.70
     Davidson diagonalization with overlap
     ethr =  1.28E-08,  avg # of iterations =  2.0

     total cpu time spent up to now is        3.2 secs

     total energy              =     -87.84284084 Ry
     estimated scf accuracy    <       0.00000099 Ry

     iteration #  3     ecut=    40.00 Ry     beta= 0.70
     Davidson diagonalization with overlap
     ethr =  9.01E-09,  avg # of iterations =  1.1

     total cpu time spent up to now is        3.3 secs

     total energy              =     -87.84284104 Ry
     estimated scf accuracy    <          8.7E-09 Ry

     iteration #  4     ecut=    40.00 Ry     beta= 0.70
     Davidson diagonalization with overlap
     ethr =  7.89E-11,  avg # of iterations =  1.4

     total cpu time spent up to now is        3.4 secs

     End of self-consistent calculation

          k = 0.0598 0.0598 0.0598 (   332 PWs)   bands (ev):

     5.3744  11.2965  11.4034  11.4034  12.2360  12.2360  36.9168  39.8028
    40.6428  40.6428

          k = 0.1793 0.1793-0.0598 (   327 PWs)   bands (ev):

     6.7037  11.0539  11.5425  11.6022  12.0808  12.4289  30.9113  34.6776
    41.0108  42.2567

          k = 0.2988 0.2988-0.1793 (   338 PWs)   bands (ev):

     8.9503  11.3498  11.4532  11.4807  12.5290  13.1635  22.7966  33.8800
    38.5085  38.9961

          k =-0.2988-0.2988 0.4184 (   340 PWs)   bands (ev):

     9.3697  11.2257  11.4103  12.1779  12.8836  14.3797  19.1783  34.9701
    36.2148  37.1875

          k =-0.1793-0.1793 0.2988 (   336 PWs)   bands (ev):

     8.3112  11.0641  11.4236  11.5659  12.5681  12.6425  25.2726  35.7075
    36.8203  38.7632

          k =-0.0598-0.0598 0.1793 (   331 PWs)   bands (ev):

     6.0561  11.1165  11.5439  11.5496  12.0808  12.3335  33.9784  37.2904
    38.0609  41.2154

          k = 0.2988 0.0598 0.0598 (   334 PWs)   bands (ev):

     7.3185  10.7866  11.6403  11.8279  12.0891  12.5015  31.3908  34.2087
    36.0828  37.5701

          k = 0.4184 0.1793-0.0598 (   332 PWs)   bands (ev):

     9.1884  10.5468  11.2937  12.0801  12.5493  13.4294  26.3032  30.0111
    32.4043  38.2447

          k =-0.1793-0.4184 0.5379 (   340 PWs)   bands (ev):

    10.0092  10.7043  11.3008  11.8773  12.8400  16.6668  19.7600  29.0520
    30.7508  38.4772

          k =-0.0598-0.2988 0.4184 (   336 PWs)   bands (ev):

     9.7795  10.8119  11.0137  11.9384  12.4434  14.4592  23.7994  27.7744
    33.4919  40.3597

          k = 0.0598-0.1793 0.2988 (   334 PWs)   bands (ev):

     7.8835  10.8399  11.4551  11.7823  12.1633  12.7598  28.3477  32.1041
    37.8011  39.8982

          k = 0.5379 0.0598 0.0598 (   331 PWs)   bands (ev):

     9.4326  10.0934  12.2959  12.5526  12.8729  13.9926  26.8473  27.7159
    29.8307  34.4997

          k =-0.0598-0.5379 0.6574 (   340 PWs)   bands (ev):

     9.7680  10.1160  11.9414  12.5612  12.9711  17.4755  23.3911  24.1379
    27.7576  36.7931

          k = 0.0598-0.4184 0.5379 (   339 PWs)   bands (ev):

    10.3265  10.4570  11.1448  12.1343  12.7622  18.2842  20.3598  24.9357
    30.0551  38.2547

          k = 0.1793-0.2988 0.4184 (   336 PWs)   bands (ev):

     9.5370  11.0888  11.4517  11.6259  12.7625  14.4376  20.9369  31.9724
    34.0442  38.7846

          k =-0.6574 0.0598 0.0598 (   338 PWs)   bands (ev):

     9.4721   9.9127  12.7074  12.7682  12.9922  16.1885  23.1342  26.8170
    28.8467  34.1205

          k =-0.5379 0.1793-0.0598 (   337 PWs)   bands (ev):

     9.7712  10.2726  11.5565  12.4100  12.8249  15.0778  24.8133  27.3936
    28.5929  37.2590

          k =-0.4184 0.0598 0.0598 (   333 PWs)   bands (ev):

     8.7592  10.4117  11.6921  12.1941  12.6445  12.6963  29.2444  31.6725
    31.7473  35.3271

          k = 0.1793 0.1793 0.1793 (   332 PWs)   bands (ev):

     7.2904  11.1006  11.5246  11.5246  12.3474  12.3474  27.8146  38.7395
    38.7395  38.7827

          k = 0.2988 0.2988 0.0598 (   332 PWs)   bands (ev):

     8.8430  10.8788  11.3060  11.7593  12.1660  13.3617  25.8080  29.6724
    38.7564  39.1060

          k =-0.2988-0.2988 0.6574 (   339 PWs)   bands (ev):

    10.1568  10.7711  11.0655  11.9318  12.5349  16.0081  21.7963  26.0494
    34.1545  36.5929

          k =-0.1793-0.1793 0.5379 (   338 PWs)   bands (ev):

     9.9014  10.4673  11.4175  12.0554  12.9225  15.7319  21.8521  27.9635
    31.6151  35.4626

          k = 0.4184 0.1793 0.1793 (   334 PWs)   bands (ev):

     9.3532  10.8233  11.2873  11.7570  12.8557  13.6440  23.2834  32.8261
    33.3015  36.2232

          k =-0.1793-0.4184 0.7770 (   337 PWs)   bands (ev):

    10.2350  10.5666  10.9641  12.1859  12.7547  16.5139  22.3430  26.4649
    28.5369  41.3192

          k =-0.0598-0.2988 0.6574 (   340 PWs)   bands (ev):

    10.1540  10.5078  11.1406  12.2687  12.9630  19.2781  21.5088  24.3475
    25.8941  41.2813

          k =-0.7770 0.1793 0.1793 (   339 PWs)   bands (ev):

     9.9956  10.2656  11.6289  12.3460  12.8496  18.4376  20.9839  24.0099
    30.7411  35.1477

          k = 0.2988 0.2988 0.2988 (   338 PWs)   bands (ev):

     9.1153  11.3525  11.3525  12.6297  12.7955  12.7955  20.5192  37.5221
    38.0284  38.0284

          k =-0.2988-0.2988 0.8965 (   341 PWs)   bands (ev):

     9.7411  10.9806  11.5746  11.6352  12.7721  15.7480  19.4442  30.2514
    34.8540  36.7529

     the Fermi energy is    14.5422 ev

!    total energy              =     -87.84284104 Ry
     estimated scf accuracy    <          2.7E-11 Ry
     smearing contrib. (-TS)   =      -0.00039121 Ry
     internal energy E=F+TS    =     -87.84244983 Ry

     The total energy is F=E-TS. E is the sum of the following terms:
     one-electron contribution =      -9.80879429 Ry
     hartree contribution      =      18.73768364 Ry
     xc contribution           =     -14.05970784 Ry
     ewald contribution        =     -82.71163135 Ry

     convergence has been achieved in   4 iterations


     Computing stress (Cartesian axis) and pressure

          total   stress  (Ry/bohr**3)                   (kbar)     P=        0.96
   0.00000654   0.00000000   0.00000000            0.96        0.00        0.00
   0.00000000   0.00000654   0.00000000            0.00        0.96        0.00
   0.00000000   0.00000000   0.00000654            0.00        0.00        0.96

     Energy error            =      2.2E-05 Ry
     Gradient error          =      0.0E+00 Ry/Bohr
     Cell gradient error     =      9.6E-01 kbar

     number of scf cycles    =   3
     number of bfgs steps    =   2

     enthalpy           old  =     -87.8428189863 Ry
     enthalpy           new  =     -87.8428410414 Ry

     CASE: enthalpy          _new < enthalpy          _old

     new trust radius        =       0.0003272168 bohr
     new conv_thr            =       0.0000000010 Ry

     new unit-cell volume =     75.47804 a.u.^3 (    11.18469 Ang^3 )
     density =      9.43438 g/cm^3

CELL_PARAMETERS (angstrom)
  -0.000000000   1.774998531   1.774998531
   1.774998531  -0.000000000   1.774998531
   1.774998531   1.774998531  -0.000000000

ATOMIC_POSITIONS (angstrom)
Cu               0.0000000000        0.0000000000        0.0000000000    0   0   0


     Message from routine punch:
     Nothing written, as per user request (disk_io='none')
     NEW-OLD atomic charge density approx. for the potential
     New effective cutoffs (rho, wfc):  326.32   41.10

     total cpu time spent up to now is        3.5 secs

     Self-consistent Calculation

     iteration #  1     ecut=    40.00 Ry     beta= 0.70
     Davidson diagonalization with overlap
     ethr =  1.00E-06,  avg # of iterations =  2.0

     Threshold (ethr) on eigenvalues was too large:
     Diagonalizing with lowered threshold

     Davidson diagonalization with overlap
     ethr =  5.87E-11,  avg # of iterations =  2.1

     total cpu time spent up to now is        3.9 secs

     total energy              =     -87.84284120 Ry
     estimated scf accuracy    <          6.7E-09 Ry

     iteration #  2     ecut=    40.00 Ry     beta= 0.70
     Davidson diagonalization with overlap
     ethr =  6.12E-11,  avg # of iterations =  2.0

     total cpu time spent up to now is        4.2 secs

     total energy              =     -87.84284120 Ry
     estimated scf accuracy    <          4.8E-09 Ry

     iteration #  3     ecut=    40.00 Ry     beta= 0.70
     Davidson diagonalization with overlap
     ethr =  4.38E-11,  avg # of iterations =  1.0

     total cpu time spent up to now is        4.4 secs

     End of self-consistent calculation

          k = 0.0598 0.0598 0.0598 (   332 PWs)   bands (ev):

     5.3674  11.2873  11.3941  11.3941  12.2259  12.2259  36.8980  39.7839
    40.6215  40.6215

          k = 0.1793 0.1793-0.0598 (   327 PWs)   bands (ev):

     6.6963  11.0449  11.5330  11.5927  12.0709  12.4187  30.8940  34.6589
    40.9913  42.2342

          k = 0.2988 0.2988-0.1793 (   338 PWs)   bands (ev):

     8.9424  11.3405  11.4440  11.4713  12.5187  13.1528  22.7817  33.8617
    38.4899  38.9747

          k =-0.2988-0.2988 0.4183 (   340 PWs)   bands (ev):

     9.3619  11.2166  11.4010  12.1682  12.8730  14.3691  19.1641  34.9519
    36.1949  37.1684

          k =-0.1793-0.1793 0.2988 (   336 PWs)   bands (ev):

     8.3033  11.0551  11.4142  11.5564  12.5578  12.6321  25.2570  35.6880
    36.8028  38.7417

          k =-0.0598-0.0598 0.1793 (   331 PWs)   bands (ev):

     6.0489  11.1074  11.5345  11.5401  12.0709  12.3234  33.9601  37.2704
    38.0423  41.1951

          k = 0.2988 0.0598 0.0598 (   334 PWs)   bands (ev):

     7.3109  10.7778  11.6308  11.8182  12.0791  12.4912  31.3733  34.1899
    36.0651  37.5505

          k = 0.4183 0.1793-0.0598 (   332 PWs)   bands (ev):

     9.1804  10.5383  11.2845  12.0702  12.5389  13.4184  26.2874  29.9941
    32.3862  38.2248

          k =-0.1793-0.4183 0.5378 (   340 PWs)   bands (ev):

    10.0009  10.6957  11.2917  11.8676  12.8294  16.6549  19.7459  29.0354
    30.7332  38.4575

          k =-0.0598-0.2988 0.4183 (   336 PWs)   bands (ev):

     9.7712  10.8031  11.0047  11.9287  12.4332  14.4477  23.7844  27.7580
    33.4735  40.3393

          k = 0.0598-0.1793 0.2988 (   334 PWs)   bands (ev):

     7.8757  10.8310  11.4458  11.7726  12.1533  12.7493  28.3311  32.0863
    37.7819  39.8774

          k = 0.5378 0.0598 0.0598 (   331 PWs)   bands (ev):

     9.4248  10.0852  12.2858  12.5423  12.8622  13.9817  26.8313  27.6996
    29.8139  34.4813

          k =-0.0598-0.5378 0.6573 (   340 PWs)   bands (ev):

     9.7601  10.1078  11.9317  12.5508  12.9604  17.4634  23.3764  24.1224
    27.7413  36.7738

          k = 0.0598-0.4183 0.5378 (   339 PWs)   bands (ev):

    10.3181  10.4486  11.1357  12.1244  12.7517  18.2715  20.3460  24.9200
    30.0378  38.2349

          k = 0.1793-0.2988 0.4183 (   336 PWs)   bands (ev):

     9.5290  11.0799  11.4425  11.6164  12.7520  14.4265  20.9225  31.9548
    34.0256  38.7648

          k =-0.6573 0.0598 0.0598 (   338 PWs)   bands (ev):

     9.4644   9.9047  12.6970  12.7577  12.9814  16.1772  23.1188  26.8012
    28.8304  34.1022

          k =-0.5378 0.1793-0.0598 (   337 PWs)   bands (ev):

     9.7632  10.2643  11.5470  12.3998  12.8143  15.0663  24.7982  27.3774
    28.5760  37.2395

          k =-0.4183 0.0598 0.0598 (   333 PWs)   bands (ev):

     8.7513  10.4033  11.6825  12.1841  12.6342  12.6858  29.2277  31.6548
    31.7299  35.3083

          k = 0.1793 0.1793 0.1793 (   332 PWs)   bands (ev):

     7.2828  11.0916  11.5151  11.5151  12.3373  12.3373  27.7982  38.7186
    38.7186  38.7650

          k = 0.2988 0.2988 0.0598 (   332 PWs)   bands (ev):

     8.8349  10.8700  11.2968  11.7497  12.1561  13.3508  25.7923  29.6554
    38.7355  39.0868

          k =-0.2988-0.2988 0.6573 (   339 PWs)   bands (ev):

    10.1484  10.7624  11.0565  11.9220  12.5245  15.9961  21.7820  26.0334
    34.1356  36.5740

          k =-0.1793-0.1793 0.5378 (   338 PWs)   bands (ev):

     9.8933  10.4589  11.4082  12.0455  12.9118  15.7201  21.8377  27.9470
    31.5974  35.4436

          k = 0.4183 0.1793 0.1793 (   334 PWs)   bands (ev):

     9.3451  10.8146  11.2781  11.7474  12.8451  13.6331  23.2685  32.8085
    33.2831  36.2038

          k =-0.1793-0.4183 0.7768 (   337 PWs)   bands (ev):

    10.2267  10.5580  10.9551  12.1759  12.7442  16.5017  22.3286  26.4491
    28.5200  41.2984

          k =-0.0598-0.2988 0.6573 (   340 PWs)   bands (ev):

    10.1459  10.4993  11.1315  12.2586  12.9524  19.2652  21.4949  24.3322
    25.8778  41.2605

          k =-0.7768 0.1793 0.1793 (   339 PWs)   bands (ev):

     9.9876  10.2573  11.6194  12.3359  12.8390  18.4250  20.9701  23.9941
    30.7238  35.1288

          k = 0.2988 0.2988 0.2988 (   338 PWs)   bands (ev):

     9.1075  11.3433  11.3433  12.6202  12.7849  12.7849  20.5048  37.5052
    38.0075  38.0075

          k =-0.2988-0.2988 0.8963 (   341 PWs)   bands (ev):

     9.7330  10.9717  11.5653  11.6257  12.7616  15.7367  19.4300  30.2343
    34.8348  36.7341

     the Fermi energy is    14.5310 ev

!    total energy              =     -87.84284120 Ry
     estimated scf accuracy    <          3.7E-11 Ry
     smearing contrib. (-TS)   =      -0.00039136 Ry
     internal energy E=F+TS    =     -87.84244984 Ry

     The total energy is F=E-TS. E is the sum of the following terms:
     one-electron contribution =      -9.83265254 Ry
     hartree contribution      =      18.74564821 Ry
     xc contribution           =     -14.05939184 Ry
     ewald contribution        =     -82.69605367 Ry

     convergence has been achieved in   3 iterations


     Computing stress (Cartesian axis) and pressure

          total   stress  (Ry/bohr**3)                   (kbar)     P=        0.15
   0.00000104   0.00000000   0.00000000            0.15        0.00        0.00
   0.00000000   0.00000104   0.00000000            0.00        0.15        0.00
   0.00000000   0.00000000   0.00000104            0.00        0.00        0.15

     Energy error            =      1.6E-07 Ry
     Gradient error          =      0.0E+00 Ry/Bohr
     Cell gradient error     =      1.5E-01 kbar

     bfgs converged in   4 scf cycles and   3 bfgs steps
     (criteria: energy <  1.0E-04 Ry, force <  1.0E-03 Ry/Bohr, cell <  5.0E-01 kbar)

     End of BFGS Geometry Optimization

     Final enthalpy           =     -87.8428412031 Ry

     File /home/bond/Work/Lab4/Problem3/Cu_nk_6/pwscf.bfgs deleted, as requested
Begin final coordinates
     new unit-cell volume =     75.47804 a.u.^3 (    11.18469 Ang^3 )
     density =      9.43438 g/cm^3

CELL_PARAMETERS (angstrom)
  -0.000000000   1.774998531   1.774998531
   1.774998531  -0.000000000   1.774998531
   1.774998531   1.774998531  -0.000000000

ATOMIC_POSITIONS (angstrom)
Cu               0.0000000000        0.0000000000        0.0000000000    0   0   0
End final coordinates


     Message from routine punch:
     Nothing written, as per user request (disk_io='none')

     Final scf calculation at the relaxed structure.
     The G-vectors are recalculated for the final unit cell
     Results may differ from those at the preceding step.

     Parallelization info
     --------------------
     sticks:   dense  smooth     PW     G-vecs:    dense   smooth      PW
     Min         249     126     42                 3694     1318     267
     Max         250     127     43                 3697     1319     270
     Sum         499     253     85                 7391     2637     537

     Using Slab Decomposition



     bravais-lattice index     =            0
     lattice parameter (alat)  =       4.8105  a.u.
     unit-cell volume          =      75.4780 (a.u.)^3
     number of atoms/cell      =            1
     number of atomic types    =            1
     number of electrons       =        11.00
     number of Kohn-Sham states=           10
     kinetic-energy cutoff     =      40.0000  Ry
     charge density cutoff     =     320.0000  Ry
     scf convergence threshold =      1.0E-09
     mixing beta               =       0.7000
     number of iterations used =            8  plain     mixing
     press convergence thresh. =      5.0E-01
     Exchange-correlation=  SLA  PZ   NOGX NOGC
                           (   1   1   0   0   0   0   0)

     celldm(1)=   4.810457  celldm(2)=   0.000000  celldm(3)=   0.000000
     celldm(4)=   0.000000  celldm(5)=   0.000000  celldm(6)=   0.000000

     crystal axes: (cart. coord. in units of alat)
               a(1) = (  -0.000000   0.697285   0.697285 )  
               a(2) = (   0.697285  -0.000000   0.697285 )  
               a(3) = (   0.697285   0.697285  -0.000000 )  

     reciprocal axes: (cart. coord. in units 2 pi/alat)
               b(1) = ( -0.717067  0.717067  0.717067 )  
               b(2) = (  0.717067 -0.717067  0.717067 )  
               b(3) = (  0.717067  0.717067 -0.717067 )  


     PseudoPot. # 1 for Cu read from file:
     /home/bond/Software/QE/qe-7.4.1/pseudo/Cu.pz-d-rrkjus.UPF
     MD5 check sum: fd38ae683e239c95a66f426e1f8e5fc7
     Pseudo is Ultrasoft, Zval = 11.0
     Generated by new atomic code, or converted to UPF format
     Using radial grid of  899 points,  3 beta functions with: 
                l(1) =   2
                l(2) =   2
                l(3) =   1
     Q(r) pseudized with 0 coefficients 


     atomic species   valence    mass     pseudopotential
     Cu               11.00    63.54600     Cu( 1.00)

     48 Sym. Ops., with inversion, found



   Cartesian axes

     site n.     atom                  positions (alat units)
         1        Cu     tau(   1) = (   0.0000000   0.0000000   0.0000000  )

     number of k points=    28  Methfessel-Paxton smearing, width (Ry)=  0.0200
                       cart. coord. in units 2pi/alat
        k(    1) = (   0.0597556   0.0597556   0.0597556), wk =   0.0185185
        k(    2) = (   0.1792667   0.1792667  -0.0597556), wk =   0.0555556
        k(    3) = (   0.2987778   0.2987778  -0.1792667), wk =   0.0555556
        k(    4) = (  -0.2987778  -0.2987778   0.4182889), wk =   0.0555556
        k(    5) = (  -0.1792667  -0.1792667   0.2987778), wk =   0.0555556
        k(    6) = (  -0.0597556  -0.0597556   0.1792667), wk =   0.0555556
        k(    7) = (   0.2987778   0.0597556   0.0597556), wk =   0.0555556
        k(    8) = (   0.4182889   0.1792667  -0.0597556), wk =   0.1111111
        k(    9) = (  -0.1792667  -0.4182889   0.5378000), wk =   0.1111111
        k(   10) = (  -0.0597556  -0.2987778   0.4182889), wk =   0.1111111
        k(   11) = (   0.0597556  -0.1792667   0.2987778), wk =   0.1111111
        k(   12) = (   0.5378000   0.0597556   0.0597556), wk =   0.0555556
        k(   13) = (  -0.0597556  -0.5378000   0.6573111), wk =   0.1111111
        k(   14) = (   0.0597556  -0.4182889   0.5378000), wk =   0.1111111
        k(   15) = (   0.1792667  -0.2987778   0.4182889), wk =   0.1111111
        k(   16) = (  -0.6573111   0.0597556   0.0597556), wk =   0.0555556
        k(   17) = (  -0.5378000   0.1792667  -0.0597556), wk =   0.1111111
        k(   18) = (  -0.4182889   0.0597556   0.0597556), wk =   0.0555556
        k(   19) = (   0.1792667   0.1792667   0.1792667), wk =   0.0185185
        k(   20) = (   0.2987778   0.2987778   0.0597556), wk =   0.0555556
        k(   21) = (  -0.2987778  -0.2987778   0.6573111), wk =   0.0555556
        k(   22) = (  -0.1792667  -0.1792667   0.5378000), wk =   0.0555556
        k(   23) = (   0.4182889   0.1792667   0.1792667), wk =   0.0555556
        k(   24) = (  -0.1792667  -0.4182889   0.7768222), wk =   0.1111111
        k(   25) = (  -0.0597556  -0.2987778   0.6573111), wk =   0.1111111
        k(   26) = (  -0.7768222   0.1792667   0.1792667), wk =   0.0555556
        k(   27) = (   0.2987778   0.2987778   0.2987778), wk =   0.0185185
        k(   28) = (  -0.2987778  -0.2987778   0.8963333), wk =   0.0555556

     Dense  grid:     7391 G-vectors     FFT dimensions: (  27,  27,  27)

     Smooth grid:     2637 G-vectors     FFT dimensions: (  20,  20,  20)

     Estimated max dynamical RAM per process >      10.63 MB

     Estimated total dynamical RAM >      21.27 MB

     Initial potential from superposition of free atoms

     starting charge      10.9997, renormalised to      11.0000
     Starting wfcs are    6 randomized atomic wfcs +    4 random wfcs

     total cpu time spent up to now is        5.1 secs

     Self-consistent Calculation

     iteration #  1     ecut=    40.00 Ry     beta= 0.70
     Davidson diagonalization with overlap
     ethr =  1.00E-06,  avg # of iterations = 13.0

     total cpu time spent up to now is        5.5 secs

     total energy              =     -87.73165194 Ry
     estimated scf accuracy    <       0.24336098 Ry

     iteration #  2     ecut=    40.00 Ry     beta= 0.70
     Davidson diagonalization with overlap
     ethr =  2.21E-03,  avg # of iterations =  2.0

     total cpu time spent up to now is        5.6 secs

     total energy              =     -87.81154396 Ry
     estimated scf accuracy    <       0.19087529 Ry

     iteration #  3     ecut=    40.00 Ry     beta= 0.70
     Davidson diagonalization with overlap
     ethr =  1.74E-03,  avg # of iterations =  1.0

     total cpu time spent up to now is        5.7 secs

     total energy              =     -87.84254224 Ry
     estimated scf accuracy    <       0.00063961 Ry

     iteration #  4     ecut=    40.00 Ry     beta= 0.70
     Davidson diagonalization with overlap
     ethr =  5.81E-06,  avg # of iterations =  2.0

     total cpu time spent up to now is        5.9 secs

     total energy              =     -87.84283042 Ry
     estimated scf accuracy    <       0.00003206 Ry

     iteration #  5     ecut=    40.00 Ry     beta= 0.70
     Davidson diagonalization with overlap
     ethr =  2.91E-07,  avg # of iterations =  1.1

     total cpu time spent up to now is        6.0 secs

     total energy              =     -87.84282901 Ry
     estimated scf accuracy    <       0.00000703 Ry

     iteration #  6     ecut=    40.00 Ry     beta= 0.70
     Davidson diagonalization with overlap
     ethr =  6.39E-08,  avg # of iterations =  1.0

     total cpu time spent up to now is        6.1 secs

     total energy              =     -87.84283024 Ry
     estimated scf accuracy    <       0.00000001 Ry

     iteration #  7     ecut=    40.00 Ry     beta= 0.70
     Davidson diagonalization with overlap
     ethr =  1.10E-10,  avg # of iterations =  2.4

     total cpu time spent up to now is        6.3 secs

     End of self-consistent calculation

          k = 0.0598 0.0598 0.0598 (   328 PWs)   bands (ev):

     5.3674  11.2875  11.3943  11.3943  12.2262  12.2262  36.8981  39.7839
    40.6215  40.6215

          k = 0.1793 0.1793-0.0598 (   319 PWs)   bands (ev):

     6.6963  11.0451  11.5332  11.5930  12.0711  12.4189  30.8940  34.6590
    40.9914  42.2343

          k = 0.2988 0.2988-0.1793 (   322 PWs)   bands (ev):

     8.9425  11.3408  11.4441  11.4716  12.5190  13.1530  22.7818  33.8618
    38.4899  38.9749

          k =-0.2988-0.2988 0.4183 (   326 PWs)   bands (ev):

     9.3620  11.2168  11.4012  12.1683  12.8732  14.3692  19.1642  34.9520
    36.1950  37.1685

          k =-0.1793-0.1793 0.2988 (   325 PWs)   bands (ev):

     8.3034  11.0553  11.4145  11.5566  12.5580  12.6324  25.2571  35.6880
    36.8028  38.7419

          k =-0.0598-0.0598 0.1793 (   321 PWs)   bands (ev):

     6.0489  11.1077  11.5347  11.5403  12.0711  12.3236  33.9603  37.2705
    38.0424  41.1952

          k = 0.2988 0.0598 0.0598 (   321 PWs)   bands (ev):

     7.3109  10.7781  11.6310  11.8185  12.0794  12.4915  31.3733  34.1900
    36.0652  37.5506

          k = 0.4183 0.1793-0.0598 (   322 PWs)   bands (ev):

     9.1804  10.5385  11.2847  12.0705  12.5392  13.4186  26.2874  29.9942
    32.3863  38.2249

          k =-0.1793-0.4183 0.5378 (   319 PWs)   bands (ev):

    10.0011  10.6959  11.2919  11.8678  12.8297  16.6550  19.7460  29.0355
    30.7333  38.4576

          k =-0.0598-0.2988 0.4183 (   321 PWs)   bands (ev):

     9.7713  10.8033  11.0049  11.9289  12.4334  14.4478  23.7845  27.7581
    33.4736  40.3394

          k = 0.0598-0.1793 0.2988 (   320 PWs)   bands (ev):

     7.8757  10.8312  11.4460  11.7729  12.1535  12.7496  28.3312  32.0864
    37.7820  39.8775

          k = 0.5378 0.0598 0.0598 (   325 PWs)   bands (ev):

     9.4250  10.0854  12.2860  12.5425  12.8625  13.9818  26.8314  27.6996
    29.8139  34.4814

          k =-0.0598-0.5378 0.6573 (   323 PWs)   bands (ev):

     9.7603  10.1080  11.9319  12.5511  12.9606  17.4635  23.3764  24.1225
    27.7414  36.7740

          k = 0.0598-0.4183 0.5378 (   322 PWs)   bands (ev):

    10.3182  10.4488  11.1359  12.1246  12.7519  18.2716  20.3461  24.9201
    30.0379  38.2350

          k = 0.1793-0.2988 0.4183 (   324 PWs)   bands (ev):

     9.5291  11.0801  11.4426  11.6166  12.7522  14.4266  20.9226  31.9549
    34.0257  38.7649

          k =-0.6573 0.0598 0.0598 (   326 PWs)   bands (ev):

     9.4646   9.9049  12.6972  12.7580  12.9817  16.1773  23.1189  26.8013
    28.8304  34.1023

          k =-0.5378 0.1793-0.0598 (   323 PWs)   bands (ev):

     9.7634  10.2645  11.5472  12.4000  12.8146  15.0664  24.7982  27.3775
    28.5761  37.2396

          k =-0.4183 0.0598 0.0598 (   321 PWs)   bands (ev):

     8.7514  10.4035  11.6827  12.1844  12.6344  12.6861  29.2278  31.6549
    31.7299  35.3084

          k = 0.1793 0.1793 0.1793 (   314 PWs)   bands (ev):

     7.2828  11.0918  11.5154  11.5154  12.3375  12.3375  27.7983  38.7188
    38.7188  38.7650

          k = 0.2988 0.2988 0.0598 (   323 PWs)   bands (ev):

     8.8350  10.8702  11.2970  11.7499  12.1563  13.3510  25.7924  29.6554
    38.7356  39.0869

          k =-0.2988-0.2988 0.6573 (   327 PWs)   bands (ev):

    10.1486  10.7626  11.0567  11.9222  12.5248  15.9962  21.7821  26.0335
    34.1356  36.5740

          k =-0.1793-0.1793 0.5378 (   318 PWs)   bands (ev):

     9.8935  10.4591  11.4084  12.0457  12.9121  15.7202  21.8378  27.9471
    31.5975  35.4438

          k = 0.4183 0.1793 0.1793 (   321 PWs)   bands (ev):

     9.3452  10.8148  11.2783  11.7476  12.8453  13.6332  23.2686  32.8086
    33.2831  36.2039

          k =-0.1793-0.4183 0.7768 (   324 PWs)   bands (ev):

    10.2268  10.5582  10.9553  12.1762  12.7444  16.5018  22.3287  26.4491
    28.5200  41.2985

          k =-0.0598-0.2988 0.6573 (   322 PWs)   bands (ev):

    10.1460  10.4995  11.1317  12.2589  12.9526  19.2653  21.4950  24.3323
    25.8779  41.2607

          k =-0.7768 0.1793 0.1793 (   324 PWs)   bands (ev):

     9.9877  10.2575  11.6196  12.3361  12.8392  18.4251  20.9702  23.9942
    30.7239  35.1289

          k = 0.2988 0.2988 0.2988 (   323 PWs)   bands (ev):

     9.1076  11.3435  11.3435  12.6202  12.7852  12.7852  20.5048  37.5052
    38.0076  38.0076

          k =-0.2988-0.2988 0.8963 (   324 PWs)   bands (ev):

     9.7332  10.9719  11.5655  11.6259  12.7618  15.7367  19.4301  30.2344
    34.8349  36.7342

     the Fermi energy is    14.5312 ev

!    total energy              =     -87.84283024 Ry
     estimated scf accuracy    <          7.5E-10 Ry
     smearing contrib. (-TS)   =      -0.00039132 Ry
     internal energy E=F+TS    =     -87.84243892 Ry

     The total energy is F=E-TS. E is the sum of the following terms:
     one-electron contribution =      -9.83254490 Ry
     hartree contribution      =      18.74554172 Ry
     xc contribution           =     -14.05938207 Ry
     ewald contribution        =     -82.69605367 Ry

     convergence has been achieved in   7 iterations


     Computing stress (Cartesian axis) and pressure

          total   stress  (Ry/bohr**3)                   (kbar)     P=       -0.66
  -0.00000451  -0.00000000  -0.00000000           -0.66       -0.00       -0.00
  -0.00000000  -0.00000451  -0.00000000           -0.00       -0.66       -0.00
  -0.00000000  -0.00000000  -0.00000451           -0.00       -0.00       -0.66

     Message from routine punch:
     Nothing written, as per user request (disk_io='none')

     init_run     :      0.84s CPU      1.01s WALL (       2 calls)
     electrons    :      3.81s CPU      4.26s WALL (       5 calls)
     update_pot   :      0.01s CPU      0.01s WALL (       3 calls)
     stress       :      0.86s CPU      1.02s WALL (       5 calls)

     Called by init_run:
     wfcinit      :      0.14s CPU      0.18s WALL (       2 calls)
     potinit      :      0.19s CPU      0.19s WALL (       2 calls)
     hinit0       :      0.41s CPU      0.48s WALL (       2 calls)

     Called by electrons:
     c_bands      :      2.79s CPU      3.09s WALL (      26 calls)
     sum_band     :      0.71s CPU      0.82s WALL (      26 calls)
     v_of_rho     :      0.03s CPU      0.04s WALL (      29 calls)
     newd         :      0.30s CPU      0.31s WALL (      29 calls)
     mix_rho      :      0.01s CPU      0.02s WALL (      26 calls)

     Called by c_bands:
     init_us_2    :      0.10s CPU      0.10s WALL (    1652 calls)
     cegterg      :      2.62s CPU      2.91s WALL (     728 calls)

     Called by *egterg:
     cdiaghg      :      0.34s CPU      0.39s WALL (    2301 calls)
     h_psi        :      1.97s CPU      2.19s WALL (    2497 calls)
     s_psi        :      0.03s CPU      0.03s WALL (    2497 calls)
     g_psi        :      0.01s CPU      0.01s WALL (    1713 calls)

     Called by h_psi:
     h_psi:calbec :      0.10s CPU      0.10s WALL (    2497 calls)
     vloc_psi     :      1.81s CPU      2.02s WALL (    2497 calls)
     add_vuspsi   :      0.03s CPU      0.04s WALL (    2497 calls)

     General routines
     calbec       :      0.17s CPU      0.20s WALL (    5045 calls)
     fft          :      0.12s CPU      0.13s WALL (     179 calls)
     ffts         :      0.16s CPU      0.17s WALL (      55 calls)
     fftw         :      1.68s CPU      1.91s WALL (   46652 calls)
     interpolate  :      0.17s CPU      0.18s WALL (      29 calls)

     Parallel routines

     PWSCF        :      5.67s CPU      6.47s WALL


   This run was terminated on:  17:32:58  21Oct2025            

=------------------------------------------------------------------------------=
   JOB DONE.
=------------------------------------------------------------------------------=
