
     Program PWSCF v.7.4.1 starts on  7Oct2025 at 22:13:56 

     This program is part of the open-source Quantum ESPRESSO suite
     for quantum simulation of materials; please cite
         "P. Giannozzi et al., J. Phys.:Condens. Matter 21 395502 (2009);
         "P. Giannozzi et al., J. Phys.:Condens. Matter 29 465901 (2017);
         "P. Giannozzi et al., J. Chem. Phys. 152 154105 (2020);
          URL http://www.quantum-espresso.org", 
     in publications or presentations arising from this work. More details at
     http://www.quantum-espresso.org/quote

     Parallel version (MPI), running on     2 processors

     MPI processes distributed on     1 nodes
     634 MiB available memory on the printing compute node when the environment starts

     Reading input from espresso.pwi
Warning: card &CELL ignored
Warning: card / ignored
Warning: card &FCP ignored
Warning: card / ignored
Warning: card &RISM ignored
Warning: card / ignored

     Current dimensions of program PWSCF are:
     Max number of different atomic species (ntypx) = 10
     Max number of k-points (npk) =  40000
     Max angular momentum in pseudopotentials (lmaxx) =  4
     Message from routine setup:
     using ibrav=0 with symmetry is DISCOURAGED, use correct ibrav instead

     R & G space division:  proc/nbgrp/npool/nimage =       2
     Subspace diagonalization in iterative solution of the eigenvalue problem:
     a serial algorithm will be used


     Parallelization info
     --------------------
     sticks:   dense  smooth     PW     G-vecs:    dense   smooth      PW
     Min         183     183     60                 2322     2322     434
     Max         184     184     61                 2323     2323     435
     Sum         367     367    121                 4645     4645     869

     Using Slab Decomposition



     bravais-lattice index     =            0
     lattice parameter (alat)  =       6.6812  a.u.
     unit-cell volume          =     210.8855 (a.u.)^3
     number of atoms/cell      =            2
     number of atomic types    =            1
     number of electrons       =        28.00
     number of Kohn-Sham states=           14
     kinetic-energy cutoff     =      30.0000  Ry
     charge density cutoff     =     120.0000  Ry
     scf convergence threshold =      1.0E-07
     mixing beta               =       0.5000
     number of iterations used =            8  plain     mixing
     Exchange-correlation=  SLA  PZ   NOGX NOGC
                           (   1   1   0   0   0   0   0)

     celldm(1)=   6.681191  celldm(2)=   0.000000  celldm(3)=   0.000000
     celldm(4)=   0.000000  celldm(5)=   0.000000  celldm(6)=   0.000000

     crystal axes: (cart. coord. in units of alat)
               a(1) = (   0.000000   0.707107   0.707107 )  
               a(2) = (   0.707107   0.000000   0.707107 )  
               a(3) = (   0.707107   0.707107   0.000000 )  

     reciprocal axes: (cart. coord. in units 2 pi/alat)
               b(1) = ( -0.707107  0.707107  0.707107 )  
               b(2) = (  0.707107 -0.707107  0.707107 )  
               b(3) = (  0.707107  0.707107 -0.707107 )  


     PseudoPot. # 1 for Ge read from file:
     /home/bond/Software/QE/qe-7.4.1/pseudo/ge_lda_v1.4.uspp.F.UPF
     MD5 check sum: bf9d52b59cc8a669818bb2b52e0c2ba0
     Pseudo is Ultrasoft + core correction, Zval = 14.0
     Generated by new atomic code, or converted to UPF format
     Using radial grid of  873 points,  6 beta functions with: 
                l(1) =   0
                l(2) =   0
                l(3) =   1
                l(4) =   1
                l(5) =   2
                l(6) =   2
     Q(r) pseudized with  8 coefficients,  rinner =    1.400   1.400   1.400
                                                       1.400   1.400

     atomic species   valence    mass     pseudopotential
     Ge               14.00    72.63000     Ge( 1.00)

     48 Sym. Ops., with inversion, found (24 have fractional translation)



   Cartesian axes

     site n.     atom                  positions (alat units)
         1        Ge     tau(   1) = (   0.0000000   0.0000000   0.0000000  )
         2        Ge     tau(   2) = (   0.3535534   0.3535534   0.3535534  )

     number of k points=     4
                       cart. coord. in units 2pi/alat
        k(    1) = (   0.0000000   0.0000000   0.0000000), wk =   0.0740741
        k(    2) = (   0.2357023   0.2357023  -0.2357023), wk =   0.5925926
        k(    3) = (   0.4714045   0.0000000   0.0000000), wk =   0.4444444
        k(    4) = (  -0.0000000  -0.4714045   0.4714045), wk =   0.8888889

     Dense  grid:     4645 G-vectors     FFT dimensions: (  24,  24,  24)

     Estimated max dynamical RAM per process >       9.92 MB

     Estimated total dynamical RAM >      19.84 MB

     Check: negative core charge=   -0.000158

     Initial potential from superposition of free atoms

     starting charge      27.9986, renormalised to      28.0000
     Starting wfcs are   18 randomized atomic wfcs

     total cpu time spent up to now is        0.4 secs

     Self-consistent Calculation

     iteration #  1     ecut=    30.00 Ry     beta= 0.50
     Davidson diagonalization with overlap
     ethr =  1.00E-02,  avg # of iterations =  2.0

     Threshold (ethr) on eigenvalues was too large:
     Diagonalizing with lowered threshold

     Davidson diagonalization with overlap
     ethr =  2.69E-04,  avg # of iterations =  1.2

     total cpu time spent up to now is        0.6 secs

     total energy              =    -425.94263073 Ry
     estimated scf accuracy    <       0.07679629 Ry

     iteration #  2     ecut=    30.00 Ry     beta= 0.50
     Davidson diagonalization with overlap
     ethr =  2.74E-04,  avg # of iterations =  2.0

     total cpu time spent up to now is        0.6 secs

     total energy              =    -425.93973568 Ry
     estimated scf accuracy    <       0.01229088 Ry

     iteration #  3     ecut=    30.00 Ry     beta= 0.50
     Davidson diagonalization with overlap
     ethr =  4.39E-05,  avg # of iterations =  2.0

     total cpu time spent up to now is        0.7 secs

     total energy              =    -425.94082983 Ry
     estimated scf accuracy    <       0.00010690 Ry

     iteration #  4     ecut=    30.00 Ry     beta= 0.50
     Davidson diagonalization with overlap
     ethr =  3.82E-07,  avg # of iterations =  3.0

     total cpu time spent up to now is        0.7 secs

     total energy              =    -425.94085724 Ry
     estimated scf accuracy    <       0.00000516 Ry

     iteration #  5     ecut=    30.00 Ry     beta= 0.50
     Davidson diagonalization with overlap
     ethr =  1.84E-08,  avg # of iterations =  3.2

     total cpu time spent up to now is        0.8 secs

     total energy              =    -425.94085881 Ry
     estimated scf accuracy    <       0.00000095 Ry

     iteration #  6     ecut=    30.00 Ry     beta= 0.50
     Davidson diagonalization with overlap
     ethr =  3.40E-09,  avg # of iterations =  2.0

     total cpu time spent up to now is        0.9 secs

     End of self-consistent calculation

          k = 0.0000 0.0000 0.0000 (   561 PWs)   bands (ev):

   -11.7781 -11.7781 -11.7781 -11.6802 -11.6802 -11.1676 -11.1676 -11.1676
   -11.1032 -11.1032  -2.1022  14.2263  14.2263  14.2263

          k = 0.2357 0.2357-0.2357 (   589 PWs)   bands (ev):

   -11.8283 -11.8283 -11.7567 -11.6141 -11.6141 -11.2320 -11.2320 -11.2202
   -11.0672 -11.0672  -0.2590   6.4727  12.4294  12.4294

          k = 0.4714 0.0000 0.0000 (   576 PWs)   bands (ev):

   -11.8301 -11.8301 -11.7881 -11.5339 -11.4992 -11.4269 -11.2425 -11.1166
   -11.0604 -11.0604   0.4133   7.2679  10.1878  10.1878

          k =-0.0000-0.4714 0.4714 (   578 PWs)   bands (ev):

   -11.9001 -11.8506 -11.6650 -11.4732 -11.4453 -11.4246 -11.3615 -11.2603
   -11.0118 -10.9773   2.3240   4.7920   7.2775  10.6574

     highest occupied level (ev):    14.2263

!    total energy              =    -425.94085886 Ry
     estimated scf accuracy    <       0.00000007 Ry

     The total energy is the sum of the following terms:
     one-electron contribution =    -236.61849237 Ry
     hartree contribution      =     149.21408401 Ry
     xc contribution           =    -115.05170251 Ry
     ewald contribution        =    -223.48474799 Ry

     convergence has been achieved in   6 iterations

     Forces acting on atoms (cartesian axes, Ry/au):

     atom    1 type  1   force =     0.00000000    0.00000000    0.00000000
     atom    2 type  1   force =     0.00000000    0.00000000    0.00000000

     Total force =     0.000000     Total SCF correction =     0.000000


     Computing stress (Cartesian axis) and pressure

          total   stress  (Ry/bohr**3)                   (kbar)     P=      389.63
   0.00264864   0.00000000  -0.00000000          389.63        0.00       -0.00
   0.00000000   0.00264864   0.00000000            0.00      389.63        0.00
   0.00000000   0.00000000   0.00264864            0.00        0.00      389.63


     Writing all to output data dir ./pwscf.save/ :
     XML data file, charge density, pseudopotentials, collected wavefunctions

     init_run     :      0.28s CPU      0.29s WALL (       1 calls)
     electrons    :      0.43s CPU      0.46s WALL (       1 calls)
     forces       :      0.01s CPU      0.01s WALL (       1 calls)
     stress       :      0.11s CPU      0.11s WALL (       1 calls)

     Called by init_run:
     wfcinit      :      0.02s CPU      0.02s WALL (       1 calls)
     potinit      :      0.01s CPU      0.01s WALL (       1 calls)
     hinit0       :      0.24s CPU      0.24s WALL (       1 calls)

     Called by electrons:
     c_bands      :      0.26s CPU      0.28s WALL (       7 calls)
     sum_band     :      0.11s CPU      0.12s WALL (       7 calls)
     v_of_rho     :      0.00s CPU      0.00s WALL (       7 calls)
     newd         :      0.06s CPU      0.06s WALL (       7 calls)
     mix_rho      :      0.00s CPU      0.00s WALL (       7 calls)

     Called by c_bands:
     init_us_2    :      0.01s CPU      0.01s WALL (      68 calls)
     cegterg      :      0.24s CPU      0.26s WALL (      28 calls)

     Called by *egterg:
     cdiaghg      :      0.02s CPU      0.02s WALL (      86 calls)
     h_psi        :      0.21s CPU      0.22s WALL (      94 calls)
     s_psi        :      0.00s CPU      0.00s WALL (      94 calls)
     g_psi        :      0.00s CPU      0.00s WALL (      62 calls)

     Called by h_psi:
     h_psi:calbec :      0.01s CPU      0.01s WALL (      94 calls)
     vloc_psi     :      0.20s CPU      0.21s WALL (      94 calls)
     add_vuspsi   :      0.00s CPU      0.00s WALL (      94 calls)

     General routines
     calbec       :      0.01s CPU      0.01s WALL (     190 calls)
     fft          :      0.14s CPU      0.14s WALL (      37 calls)
     ffts         :      0.00s CPU      0.00s WALL (       7 calls)
     fftw         :      0.22s CPU      0.23s WALL (    2458 calls)

     Parallel routines

     PWSCF        :      0.98s CPU      1.05s WALL


   This run was terminated on:  22:13:57   7Oct2025            

=------------------------------------------------------------------------------=
   JOB DONE.
=------------------------------------------------------------------------------=
