
     Program PWSCF v.7.4.1 starts on  7Oct2025 at 23:55:27 

     This program is part of the open-source Quantum ESPRESSO suite
     for quantum simulation of materials; please cite
         "P. Giannozzi et al., J. Phys.:Condens. Matter 21 395502 (2009);
         "P. Giannozzi et al., J. Phys.:Condens. Matter 29 465901 (2017);
         "P. Giannozzi et al., J. Chem. Phys. 152 154105 (2020);
          URL http://www.quantum-espresso.org", 
     in publications or presentations arising from this work. More details at
     http://www.quantum-espresso.org/quote

     Parallel version (MPI), running on     1 processors

     MPI processes distributed on     1 nodes
     162 MiB available memory on the printing compute node when the environment starts

     Waiting for input...
     Reading input from standard input
Warning: card &CELL ignored
Warning: card / ignored

     Current dimensions of program PWSCF are:
     Max number of different atomic species (ntypx) = 10
     Max number of k-points (npk) =  40000
     Max angular momentum in pseudopotentials (lmaxx) =  4
     Message from routine setup:
     using ibrav=0 with symmetry is DISCOURAGED, use correct ibrav instead

     Subspace diagonalization in iterative solution of the eigenvalue problem:
     a serial algorithm will be used


     G-vector sticks info
     --------------------
     sticks:   dense  smooth     PW     G-vecs:    dense   smooth      PW
     Sum         475     475    151                 6855     6855    1139

     Using Slab Decomposition



     bravais-lattice index     =            0
     lattice parameter (alat)  =       7.5604  a.u.
     unit-cell volume          =     305.5804 (a.u.)^3
     number of atoms/cell      =            2
     number of atomic types    =            1
     number of electrons       =        28.00
     number of Kohn-Sham states=           14
     kinetic-energy cutoff     =      30.0000  Ry
     charge density cutoff     =     120.0000  Ry
     scf convergence threshold =      1.0E-07
     mixing beta               =       0.5000
     number of iterations used =            8  plain     mixing
     Exchange-correlation=  SLA  PZ   NOGX NOGC
                           (   1   1   0   0   0   0   0)

     celldm(1)=   7.560435  celldm(2)=   0.000000  celldm(3)=   0.000000
     celldm(4)=   0.000000  celldm(5)=   0.000000  celldm(6)=   0.000000

     crystal axes: (cart. coord. in units of alat)
               a(1) = (   0.000000   0.707107   0.707107 )  
               a(2) = (   0.707107   0.000000   0.707107 )  
               a(3) = (   0.707107   0.707107   0.000000 )  

     reciprocal axes: (cart. coord. in units 2 pi/alat)
               b(1) = ( -0.707107  0.707107  0.707107 )  
               b(2) = (  0.707107 -0.707107  0.707107 )  
               b(3) = (  0.707107  0.707107 -0.707107 )  


     PseudoPot. # 1 for Ge read from file:
     /home/bond/Software/QE/qe-7.4.1/pseudo/ge_lda_v1.4.uspp.F.UPF
     MD5 check sum: bf9d52b59cc8a669818bb2b52e0c2ba0
     Pseudo is Ultrasoft + core correction, Zval = 14.0
     Generated by new atomic code, or converted to UPF format
     Using radial grid of  873 points,  6 beta functions with: 
                l(1) =   0
                l(2) =   0
                l(3) =   1
                l(4) =   1
                l(5) =   2
                l(6) =   2
     Q(r) pseudized with  8 coefficients,  rinner =    1.400   1.400   1.400
                                                       1.400   1.400

     atomic species   valence    mass     pseudopotential
     Ge               14.00    72.63000     Ge( 1.00)

     48 Sym. Ops., with inversion, found (24 have fractional translation)



   Cartesian axes

     site n.     atom                  positions (alat units)
         1        Ge     tau(   1) = (   0.0000000   0.0000000   0.0000000  )
         2        Ge     tau(   2) = (   0.3535534   0.3535534   0.3535534  )

     number of k points=     3
                       cart. coord. in units 2pi/alat
        k(    1) = (   0.0000000   0.0000000   0.0000000), wk =   0.2500000
        k(    2) = (  -0.3535534  -0.3535534   0.3535534), wk =   1.0000000
        k(    3) = (  -0.7071068   0.0000000   0.0000000), wk =   0.7500000

     Dense  grid:     6855 G-vectors     FFT dimensions: (  32,  32,  32)

     Estimated max dynamical RAM per process >      28.20 MB

     Check: negative core charge=   -0.000126

     Initial potential from superposition of free atoms

     starting charge      27.9986, renormalised to      28.0000
     Starting wfcs are   18 randomized atomic wfcs

     total cpu time spent up to now is        0.7 secs

     Self-consistent Calculation

     iteration #  1     ecut=    30.00 Ry     beta= 0.50
     Davidson diagonalization with overlap
     ethr =  1.00E-02,  avg # of iterations =  2.0

     Threshold (ethr) on eigenvalues was too large:
     Diagonalizing with lowered threshold

     Davidson diagonalization with overlap
     ethr =  2.37E-04,  avg # of iterations =  1.7

     total cpu time spent up to now is        0.9 secs

     total energy              =    -425.92296269 Ry
     estimated scf accuracy    <       0.06916560 Ry

     iteration #  2     ecut=    30.00 Ry     beta= 0.50
     Davidson diagonalization with overlap
     ethr =  2.47E-04,  avg # of iterations =  1.3

     total cpu time spent up to now is        1.1 secs

     total energy              =    -425.92063638 Ry
     estimated scf accuracy    <       0.01161184 Ry

     iteration #  3     ecut=    30.00 Ry     beta= 0.50
     Davidson diagonalization with overlap
     ethr =  4.15E-05,  avg # of iterations =  2.0

     total cpu time spent up to now is        1.2 secs

     total energy              =    -425.92154646 Ry
     estimated scf accuracy    <       0.00010393 Ry

     iteration #  4     ecut=    30.00 Ry     beta= 0.50
     Davidson diagonalization with overlap
     ethr =  3.71E-07,  avg # of iterations =  4.7

     total cpu time spent up to now is        1.3 secs

     total energy              =    -425.92157020 Ry
     estimated scf accuracy    <       0.00000208 Ry

     iteration #  5     ecut=    30.00 Ry     beta= 0.50
     Davidson diagonalization with overlap
     ethr =  7.41E-09,  avg # of iterations =  6.3

     total cpu time spent up to now is        1.5 secs

     total energy              =    -425.92157154 Ry
     estimated scf accuracy    <       0.00000011 Ry

     iteration #  6     ecut=    30.00 Ry     beta= 0.50
     Davidson diagonalization with overlap
     ethr =  4.08E-10,  avg # of iterations =  3.7

     total cpu time spent up to now is        1.6 secs

     End of self-consistent calculation

          k = 0.0000 0.0000 0.0000 (   869 PWs)   bands (ev):

   -16.3395 -16.3395 -16.3395 -16.3185 -16.3185 -16.1130 -16.1130 -16.1130
   -16.0906 -16.0906  -4.4165   8.2811   8.4411   8.4411

          k =-0.3536-0.3536 0.3536 (   862 PWs)   bands (ev):

   -16.3643 -16.3643 -16.3320 -16.2757 -16.2757 -16.1384 -16.1384 -16.1214
   -16.0661 -16.0661  -2.3065   0.7376   7.0077   7.0077

          k =-0.7071 0.0000 0.0000 (   846 PWs)   bands (ev):

   -16.3710 -16.3710 -16.2978 -16.2978 -16.1974 -16.1974 -16.1365 -16.1365
   -16.0436 -16.0436  -0.5126  -0.5126   5.2999   5.2999

     highest occupied level (ev):     8.4411

!    total energy              =    -425.92157156 Ry
     estimated scf accuracy    <       0.00000002 Ry

     The total energy is the sum of the following terms:
     one-electron contribution =    -279.57989388 Ry
     hartree contribution      =     165.72986714 Ry
     xc contribution           =    -114.57706976 Ry
     ewald contribution        =    -197.49447506 Ry

     convergence has been achieved in   6 iterations

     Forces acting on atoms (cartesian axes, Ry/au):

     atom    1 type  1   force =     0.00000000   -0.00000000    0.00000000
     atom    2 type  1   force =     0.00000000    0.00000000    0.00000000

     Total force =     0.000000     Total SCF correction =     0.000000


     Computing stress (Cartesian axis) and pressure

          total   stress  (Ry/bohr**3)                   (kbar)     P=      -16.18
  -0.00010997   0.00000000   0.00000000          -16.18        0.00        0.00
   0.00000000  -0.00010997   0.00000000            0.00      -16.18        0.00
   0.00000000   0.00000000  -0.00010997            0.00        0.00      -16.18

     Message from routine punch:
     Nothing written, as per user request (disk_io='none')

     init_run     :      0.52s CPU      0.54s WALL (       1 calls)
     electrons    :      0.87s CPU      0.91s WALL (       1 calls)
     forces       :      0.04s CPU      0.04s WALL (       1 calls)
     stress       :      0.32s CPU      0.32s WALL (       1 calls)

     Called by init_run:
     wfcinit      :      0.15s CPU      0.16s WALL (       1 calls)
     potinit      :      0.01s CPU      0.01s WALL (       1 calls)
     hinit0       :      0.32s CPU      0.33s WALL (       1 calls)

     Called by electrons:
     c_bands      :      0.42s CPU      0.43s WALL (       7 calls)
     sum_band     :      0.29s CPU      0.30s WALL (       7 calls)
     v_of_rho     :      0.01s CPU      0.02s WALL (       7 calls)
     newd         :      0.17s CPU      0.18s WALL (       7 calls)
     mix_rho      :      0.00s CPU      0.00s WALL (       7 calls)

     Called by c_bands:
     init_us_2    :      0.02s CPU      0.02s WALL (      51 calls)
     cegterg      :      0.38s CPU      0.39s WALL (      21 calls)

     Called by *egterg:
     cdiaghg      :      0.02s CPU      0.02s WALL (      83 calls)
     h_psi        :      0.45s CPU      0.47s WALL (      89 calls)
     s_psi        :      0.01s CPU      0.01s WALL (      89 calls)
     g_psi        :      0.00s CPU      0.00s WALL (      65 calls)

     Called by h_psi:
     h_psi:calbec :      0.01s CPU      0.01s WALL (      89 calls)
     vloc_psi     :      0.42s CPU      0.44s WALL (      89 calls)
     add_vuspsi   :      0.01s CPU      0.01s WALL (      89 calls)

     General routines
     calbec       :      0.02s CPU      0.02s WALL (     161 calls)
     fft          :      0.15s CPU      0.16s WALL (      37 calls)
     ffts         :      0.00s CPU      0.00s WALL (       7 calls)
     fftw         :      0.40s CPU      0.42s WALL (    1924 calls)

     Parallel routines

     PWSCF        :      1.88s CPU      1.96s WALL


   This run was terminated on:  23:55:28   7Oct2025            

=------------------------------------------------------------------------------=
   JOB DONE.
=------------------------------------------------------------------------------=
