
     Program PWSCF v.7.4.1 starts on  9Oct2025 at 13: 3:31 

     This program is part of the open-source Quantum ESPRESSO suite
     for quantum simulation of materials; please cite
         "P. Giannozzi et al., J. Phys.:Condens. Matter 21 395502 (2009);
         "P. Giannozzi et al., J. Phys.:Condens. Matter 29 465901 (2017);
         "P. Giannozzi et al., J. Chem. Phys. 152 154105 (2020);
          URL http://www.quantum-espresso.org", 
     in publications or presentations arising from this work. More details at
     http://www.quantum-espresso.org/quote

     Parallel version (MPI), running on     1 processors

     MPI processes distributed on     1 nodes
     580 MiB available memory on the printing compute node when the environment starts

     Waiting for input...
     Reading input from standard input
Warning: card &CELL ignored
Warning: card / ignored

     Current dimensions of program PWSCF are:
     Max number of different atomic species (ntypx) = 10
     Max number of k-points (npk) =  40000
     Max angular momentum in pseudopotentials (lmaxx) =  4
     Message from routine setup:
     using ibrav=0 with symmetry is DISCOURAGED, use correct ibrav instead

     Subspace diagonalization in iterative solution of the eigenvalue problem:
     a serial algorithm will be used


     G-vector sticks info
     --------------------
     sticks:   dense  smooth     PW     G-vecs:    dense   smooth      PW
     Sum        1273    1273    367                29939    29939    4645

     Using Slab Decomposition



     bravais-lattice index     =            0
     lattice parameter (alat)  =       7.5872  a.u.
     unit-cell volume          =     308.8323 (a.u.)^3
     number of atoms/cell      =            2
     number of atomic types    =            1
     number of electrons       =        28.00
     number of Kohn-Sham states=           14
     kinetic-energy cutoff     =      80.0000  Ry
     charge density cutoff     =     320.0000  Ry
     scf convergence threshold =      1.0E-07
     mixing beta               =       0.5000
     number of iterations used =            8  plain     mixing
     Exchange-correlation=  SLA  PZ   NOGX NOGC
                           (   1   1   0   0   0   0   0)

     celldm(1)=   7.587160  celldm(2)=   0.000000  celldm(3)=   0.000000
     celldm(4)=   0.000000  celldm(5)=   0.000000  celldm(6)=   0.000000

     crystal axes: (cart. coord. in units of alat)
               a(1) = (   0.000000   0.707107   0.707107 )  
               a(2) = (   0.707107   0.000000   0.707107 )  
               a(3) = (   0.707107   0.707107   0.000000 )  

     reciprocal axes: (cart. coord. in units 2 pi/alat)
               b(1) = ( -0.707107  0.707107  0.707107 )  
               b(2) = (  0.707107 -0.707107  0.707107 )  
               b(3) = (  0.707107  0.707107 -0.707107 )  


     PseudoPot. # 1 for Ge read from file:
     /home/bond/Software/QE/qe-7.4.1/pseudo/ge_lda_v1.4.uspp.F.UPF
     MD5 check sum: bf9d52b59cc8a669818bb2b52e0c2ba0
     Pseudo is Ultrasoft + core correction, Zval = 14.0
     Generated by new atomic code, or converted to UPF format
     Using radial grid of  873 points,  6 beta functions with: 
                l(1) =   0
                l(2) =   0
                l(3) =   1
                l(4) =   1
                l(5) =   2
                l(6) =   2
     Q(r) pseudized with  8 coefficients,  rinner =    1.400   1.400   1.400
                                                       1.400   1.400

     atomic species   valence    mass     pseudopotential
     Ge               14.00    72.63000     Ge( 1.00)

     48 Sym. Ops., with inversion, found (24 have fractional translation)



   Cartesian axes

     site n.     atom                  positions (alat units)
         1        Ge     tau(   1) = (   0.0000000   0.0000000   0.0000000  )
         2        Ge     tau(   2) = (   0.3535534   0.3535534   0.3535534  )

     number of k points=     8
                       cart. coord. in units 2pi/alat
        k(    1) = (   0.0000000   0.0000000   0.0000000), wk =   0.0312500
        k(    2) = (   0.1767767   0.1767767  -0.1767767), wk =   0.2500000
        k(    3) = (  -0.3535534  -0.3535534   0.3535534), wk =   0.1250000
        k(    4) = (   0.3535534   0.0000000   0.0000000), wk =   0.1875000
        k(    5) = (  -0.1767767  -0.5303301   0.5303301), wk =   0.7500000
        k(    6) = (   0.0000000  -0.3535534   0.3535534), wk =   0.3750000
        k(    7) = (  -0.7071068   0.0000000   0.0000000), wk =   0.0937500
        k(    8) = (  -0.7071068   0.3535534   0.0000000), wk =   0.1875000

     Dense  grid:    29939 G-vectors     FFT dimensions: (  48,  48,  48)

     Estimated max dynamical RAM per process >     122.53 MB

     Check: negative core charge=   -0.000001

     Initial potential from superposition of free atoms

     starting charge      27.9986, renormalised to      28.0000
     Starting wfcs are   18 randomized atomic wfcs

     total cpu time spent up to now is        1.2 secs

     Self-consistent Calculation

     iteration #  1     ecut=    80.00 Ry     beta= 0.50
     Davidson diagonalization with overlap
     ethr =  1.00E-02,  avg # of iterations =  1.8

     Threshold (ethr) on eigenvalues was too large:
     Diagonalizing with lowered threshold

     Davidson diagonalization with overlap
     ethr =  1.29E-04,  avg # of iterations =  2.0

     total cpu time spent up to now is        2.5 secs

     total energy              =    -426.15270286 Ry
     estimated scf accuracy    <       0.03867999 Ry

     iteration #  2     ecut=    80.00 Ry     beta= 0.50
     Davidson diagonalization with overlap
     ethr =  1.38E-04,  avg # of iterations =  1.1

     total cpu time spent up to now is        3.1 secs

     total energy              =    -426.15117295 Ry
     estimated scf accuracy    <       0.00689537 Ry

     iteration #  3     ecut=    80.00 Ry     beta= 0.50
     Davidson diagonalization with overlap
     ethr =  2.46E-05,  avg # of iterations =  2.0

     total cpu time spent up to now is        3.8 secs

     total energy              =    -426.15166321 Ry
     estimated scf accuracy    <       0.00007404 Ry

     iteration #  4     ecut=    80.00 Ry     beta= 0.50
     Davidson diagonalization with overlap
     ethr =  2.64E-07,  avg # of iterations =  3.2

     total cpu time spent up to now is        4.7 secs

     total energy              =    -426.15168226 Ry
     estimated scf accuracy    <       0.00000336 Ry

     iteration #  5     ecut=    80.00 Ry     beta= 0.50
     Davidson diagonalization with overlap
     ethr =  1.20E-08,  avg # of iterations =  4.0

     total cpu time spent up to now is        5.5 secs

     total energy              =    -426.15168321 Ry
     estimated scf accuracy    <       0.00000015 Ry

     iteration #  6     ecut=    80.00 Ry     beta= 0.50
     Davidson diagonalization with overlap
     ethr =  5.47E-10,  avg # of iterations =  3.5

     total cpu time spent up to now is        6.4 secs

     End of self-consistent calculation

          k = 0.0000 0.0000 0.0000 (  3719 PWs)   bands (ev):

   -16.8021 -16.8021 -16.8021 -16.7669 -16.7669 -16.5614 -16.5614 -16.5614
   -16.5490 -16.5490  -4.6868   7.7741   8.0585   8.0585

          k = 0.1768 0.1768-0.1768 (  3741 PWs)   bands (ev):

   -16.8199 -16.8199 -16.7937 -16.7391 -16.7391 -16.5868 -16.5868 -16.5713
   -16.5288 -16.5288  -3.9525   3.2888   7.1835   7.1835

          k =-0.3536-0.3536 0.3536 (  3750 PWs)   bands (ev):

   -16.8261 -16.8261 -16.7850 -16.7261 -16.7261 -16.5955 -16.5955 -16.5815
   -16.5220 -16.5220  -2.6239   0.4509   6.6665   6.6665

          k = 0.3536 0.0000 0.0000 (  3727 PWs)   bands (ev):

   -16.8200 -16.8200 -16.8082 -16.7337 -16.6996 -16.6463 -16.5796 -16.5365
   -16.5337 -16.5337  -3.6872   3.2634   6.0386   6.0386

          k =-0.1768-0.5303 0.5303 (  3737 PWs)   bands (ev):

   -16.8466 -16.8320 -16.7654 -16.6999 -16.6808 -16.6626 -16.6160 -16.5853
   -16.5143 -16.5003  -2.2163   0.6435   4.3426   5.6773

          k = 0.0000-0.3536 0.3536 (  3733 PWs)   bands (ev):

   -16.8419 -16.8346 -16.7594 -16.7238 -16.6971 -16.6271 -16.6080 -16.5956
   -16.5108 -16.5075  -2.8231   1.4885   4.2070   6.5668

          k =-0.7071 0.0000 0.0000 (  3740 PWs)   bands (ev):

   -16.8353 -16.8353 -16.7516 -16.7516 -16.6554 -16.6554 -16.5994 -16.5994
   -16.5084 -16.5084  -0.8459  -0.8459   5.0110   5.0110

          k =-0.7071 0.3536 0.0000 (  3736 PWs)   bands (ev):

   -16.8487 -16.8487 -16.7104 -16.7104 -16.6628 -16.6628 -16.6316 -16.6316
   -16.4966 -16.4966  -0.7512  -0.7512   4.1747   4.1747

     highest occupied level (ev):     8.0585

!    total energy              =    -426.15168325 Ry
     estimated scf accuracy    <       0.00000004 Ry

     The total energy is the sum of the following terms:
     one-electron contribution =    -280.39068498 Ry
     hartree contribution      =     165.57668576 Ry
     xc contribution           =    -114.53885702 Ry
     ewald contribution        =    -196.79882701 Ry

     convergence has been achieved in   6 iterations

     Forces acting on atoms (cartesian axes, Ry/au):

     atom    1 type  1   force =     0.00000000    0.00000000   -0.00000000
     atom    2 type  1   force =     0.00000000    0.00000000    0.00000000

     Total force =     0.000000     Total SCF correction =     0.000000


     Computing stress (Cartesian axis) and pressure

          total   stress  (Ry/bohr**3)                   (kbar)     P=      -10.54
  -0.00007163   0.00000000   0.00000000          -10.54        0.00        0.00
   0.00000000  -0.00007163   0.00000000            0.00      -10.54        0.00
   0.00000000   0.00000000  -0.00007163            0.00        0.00      -10.54

     Message from routine punch:
     Nothing written, as per user request (disk_io='none')

     init_run     :      1.08s CPU      1.10s WALL (       1 calls)
     electrons    :      5.07s CPU      5.20s WALL (       1 calls)
     forces       :      0.13s CPU      0.14s WALL (       1 calls)
     stress       :      1.04s CPU      1.07s WALL (       1 calls)

     Called by init_run:
     wfcinit      :      0.48s CPU      0.48s WALL (       1 calls)
     potinit      :      0.02s CPU      0.02s WALL (       1 calls)
     hinit0       :      0.50s CPU      0.50s WALL (       1 calls)

     Called by electrons:
     c_bands      :      3.46s CPU      3.47s WALL (       7 calls)
     sum_band     :      1.13s CPU      1.21s WALL (       7 calls)
     v_of_rho     :      0.04s CPU      0.04s WALL (       7 calls)
     newd         :      0.49s CPU      0.55s WALL (       7 calls)
     mix_rho      :      0.01s CPU      0.02s WALL (       7 calls)

     Called by c_bands:
     init_us_2    :      0.12s CPU      0.12s WALL (     136 calls)
     cegterg      :      3.17s CPU      3.18s WALL (      56 calls)

     Called by *egterg:
     cdiaghg      :      0.03s CPU      0.03s WALL (     189 calls)
     h_psi        :      3.24s CPU      3.24s WALL (     205 calls)
     s_psi        :      0.06s CPU      0.07s WALL (     205 calls)
     g_psi        :      0.02s CPU      0.02s WALL (     141 calls)

     Called by h_psi:
     h_psi:calbec :      0.09s CPU      0.09s WALL (     205 calls)
     vloc_psi     :      3.06s CPU      3.07s WALL (     205 calls)
     add_vuspsi   :      0.07s CPU      0.07s WALL (     205 calls)

     General routines
     calbec       :      0.18s CPU      0.18s WALL (     397 calls)
     fft          :      0.31s CPU      0.31s WALL (      37 calls)
     ffts         :      0.01s CPU      0.01s WALL (       7 calls)
     fftw         :      3.11s CPU      3.12s WALL (    5026 calls)

     Parallel routines

     PWSCF        :      7.38s CPU      7.60s WALL


   This run was terminated on:  13: 3:39   9Oct2025            

=------------------------------------------------------------------------------=
   JOB DONE.
=------------------------------------------------------------------------------=
