
     Program PWSCF v.7.4.1 starts on  8Oct2025 at 23:11:22 

     This program is part of the open-source Quantum ESPRESSO suite
     for quantum simulation of materials; please cite
         "P. Giannozzi et al., J. Phys.:Condens. Matter 21 395502 (2009);
         "P. Giannozzi et al., J. Phys.:Condens. Matter 29 465901 (2017);
         "P. Giannozzi et al., J. Chem. Phys. 152 154105 (2020);
          URL http://www.quantum-espresso.org", 
     in publications or presentations arising from this work. More details at
     http://www.quantum-espresso.org/quote

     Parallel version (MPI), running on     1 processors

     MPI processes distributed on     1 nodes
     259 MiB available memory on the printing compute node when the environment starts

     Waiting for input...
     Reading input from standard input

     Current dimensions of program PWSCF are:
     Max number of different atomic species (ntypx) = 10
     Max number of k-points (npk) =  40000
     Max angular momentum in pseudopotentials (lmaxx) =  4
     Message from routine setup:
     using ibrav=0 with symmetry is DISCOURAGED, use correct ibrav instead

     Subspace diagonalization in iterative solution of the eigenvalue problem:
     a serial algorithm will be used


     G-vector sticks info
     --------------------
     sticks:   dense  smooth     PW     G-vecs:    dense   smooth      PW
     Sum         637     637    199                10417    10417    1837

     Using Slab Decomposition



     bravais-lattice index     =            0
     lattice parameter (alat)  =       7.5497  a.u.
     unit-cell volume          =     304.2860 (a.u.)^3
     number of atoms/cell      =            2
     number of atomic types    =            1
     number of electrons       =        28.00
     number of Kohn-Sham states=           14
     kinetic-energy cutoff     =      40.0000  Ry
     charge density cutoff     =     160.0000  Ry
     scf convergence threshold =      1.0E-07
     mixing beta               =       0.5000
     number of iterations used =            8  plain     mixing
     energy convergence thresh.=      1.0E-04
     force convergence thresh. =      1.0E-03
     press convergence thresh. =      5.0E-01
     Exchange-correlation=  SLA  PZ   NOGX NOGC
                           (   1   1   0   0   0   0   0)
     nstep                     =           50


     celldm(1)=   7.549746  celldm(2)=   0.000000  celldm(3)=   0.000000
     celldm(4)=   0.000000  celldm(5)=   0.000000  celldm(6)=   0.000000

     crystal axes: (cart. coord. in units of alat)
               a(1) = (   0.000000   0.707107   0.707107 )  
               a(2) = (   0.707107   0.000000   0.707107 )  
               a(3) = (   0.707107   0.707107   0.000000 )  

     reciprocal axes: (cart. coord. in units 2 pi/alat)
               b(1) = ( -0.707107  0.707107  0.707107 )  
               b(2) = (  0.707107 -0.707107  0.707107 )  
               b(3) = (  0.707107  0.707107 -0.707107 )  


     PseudoPot. # 1 for Ge read from file:
     /home/bond/Software/QE/qe-7.4.1/pseudo/ge_lda_v1.4.uspp.F.UPF
     MD5 check sum: bf9d52b59cc8a669818bb2b52e0c2ba0
     Pseudo is Ultrasoft + core correction, Zval = 14.0
     Generated by new atomic code, or converted to UPF format
     Using radial grid of  873 points,  6 beta functions with: 
                l(1) =   0
                l(2) =   0
                l(3) =   1
                l(4) =   1
                l(5) =   2
                l(6) =   2
     Q(r) pseudized with  8 coefficients,  rinner =    1.400   1.400   1.400
                                                       1.400   1.400

     atomic species   valence    mass     pseudopotential
     Ge               14.00    72.63000     Ge( 1.00)

     48 Sym. Ops., with inversion, found (24 have fractional translation)



   Cartesian axes

     site n.     atom                  positions (alat units)
         1        Ge     tau(   1) = (   0.0000000   0.0000000   0.0000000  )
         2        Ge     tau(   2) = (   0.3535534   0.3535534   0.3535534  )

     number of k points=    47
                       cart. coord. in units 2pi/alat
        k(    1) = (   0.0000000   0.0000000   0.0000000), wk =   0.0020000
        k(    2) = (   0.0707107   0.0707107  -0.0707107), wk =   0.0160000
        k(    3) = (   0.1414214   0.1414214  -0.1414214), wk =   0.0160000
        k(    4) = (   0.2121320   0.2121320  -0.2121320), wk =   0.0160000
        k(    5) = (   0.2828427   0.2828427  -0.2828427), wk =   0.0160000
        k(    6) = (  -0.3535534  -0.3535534   0.3535534), wk =   0.0080000
        k(    7) = (   0.1414214   0.0000000   0.0000000), wk =   0.0120000
        k(    8) = (   0.2121320   0.0707107  -0.0707107), wk =   0.0480000
        k(    9) = (   0.2828427   0.1414214  -0.1414214), wk =   0.0480000
        k(   10) = (   0.3535534   0.2121320  -0.2121320), wk =   0.0480000
        k(   11) = (  -0.2828427  -0.4242641   0.4242641), wk =   0.0480000
        k(   12) = (  -0.2121320  -0.3535534   0.3535534), wk =   0.0480000
        k(   13) = (  -0.1414214  -0.2828427   0.2828427), wk =   0.0480000
        k(   14) = (  -0.0707107  -0.2121320   0.2121320), wk =   0.0480000
        k(   15) = (   0.0000000  -0.1414214   0.1414214), wk =   0.0240000
        k(   16) = (   0.2828427   0.0000000   0.0000000), wk =   0.0120000
        k(   17) = (   0.3535534   0.0707107  -0.0707107), wk =   0.0480000
        k(   18) = (   0.4242641   0.1414214  -0.1414214), wk =   0.0480000
        k(   19) = (  -0.2121320  -0.4949747   0.4949747), wk =   0.0480000
        k(   20) = (  -0.1414214  -0.4242641   0.4242641), wk =   0.0480000
        k(   21) = (  -0.0707107  -0.3535534   0.3535534), wk =   0.0480000
        k(   22) = (   0.0000000  -0.2828427   0.2828427), wk =   0.0240000
        k(   23) = (   0.4242641   0.0000000   0.0000000), wk =   0.0120000
        k(   24) = (   0.4949747   0.0707107  -0.0707107), wk =   0.0480000
        k(   25) = (  -0.1414214  -0.5656854   0.5656854), wk =   0.0480000
        k(   26) = (  -0.0707107  -0.4949747   0.4949747), wk =   0.0480000
        k(   27) = (  -0.0000000  -0.4242641   0.4242641), wk =   0.0240000
        k(   28) = (   0.5656854   0.0000000   0.0000000), wk =   0.0120000
        k(   29) = (  -0.0707107  -0.6363961   0.6363961), wk =   0.0480000
        k(   30) = (   0.0000000  -0.5656854   0.5656854), wk =   0.0240000
        k(   31) = (  -0.7071068   0.0000000   0.0000000), wk =   0.0060000
        k(   32) = (   0.2828427   0.1414214   0.0000000), wk =   0.0480000
        k(   33) = (   0.3535534   0.2121320  -0.0707107), wk =   0.0960000
        k(   34) = (  -0.2828427  -0.4242641   0.5656854), wk =   0.0960000
        k(   35) = (  -0.2121320  -0.3535534   0.4949747), wk =   0.0480000
        k(   36) = (   0.4242641   0.1414214  -0.0000000), wk =   0.0480000
        k(   37) = (  -0.2121320  -0.4949747   0.6363961), wk =   0.0960000
        k(   38) = (  -0.1414214  -0.4242641   0.5656854), wk =   0.0960000
        k(   39) = (  -0.0707107  -0.3535534   0.4949747), wk =   0.0960000
        k(   40) = (   0.0000000  -0.2828427   0.4242641), wk =   0.0480000
        k(   41) = (  -0.1414214  -0.5656854   0.7071068), wk =   0.0480000
        k(   42) = (  -0.0707107  -0.4949747   0.6363961), wk =   0.0960000
        k(   43) = (  -0.0000000  -0.4242641   0.5656854), wk =   0.0480000
        k(   44) = (  -0.7071068   0.1414214   0.0000000), wk =   0.0240000
        k(   45) = (  -0.1414214  -0.4242641   0.7071068), wk =   0.0480000
        k(   46) = (  -0.0707107  -0.3535534   0.6363961), wk =   0.0480000
        k(   47) = (  -0.7071068   0.2828427   0.0000000), wk =   0.0240000

     Dense  grid:    10417 G-vectors     FFT dimensions: (  32,  32,  32)

     Estimated max dynamical RAM per process >      54.61 MB

     Check: negative core charge=   -0.000004

     Initial potential from superposition of free atoms

     starting charge      27.9986, renormalised to      28.0000
     Starting wfcs are   18 randomized atomic wfcs

     total cpu time spent up to now is        1.3 secs

     Self-consistent Calculation

     iteration #  1     ecut=    40.00 Ry     beta= 0.50
     Davidson diagonalization with overlap
     ethr =  1.00E-02,  avg # of iterations =  1.7

     Threshold (ethr) on eigenvalues was too large:
     Diagonalizing with lowered threshold

     Davidson diagonalization with overlap
     ethr =  1.17E-04,  avg # of iterations =  2.0

     total cpu time spent up to now is        3.2 secs

     total energy              =    -426.17141102 Ry
     estimated scf accuracy    <       0.03463804 Ry

     iteration #  2     ecut=    40.00 Ry     beta= 0.50
     Davidson diagonalization with overlap
     ethr =  1.24E-04,  avg # of iterations =  1.0

     total cpu time spent up to now is        4.0 secs

     total energy              =    -426.17008578 Ry
     estimated scf accuracy    <       0.00610544 Ry

     iteration #  3     ecut=    40.00 Ry     beta= 0.50
     Davidson diagonalization with overlap
     ethr =  2.18E-05,  avg # of iterations =  2.0

     total cpu time spent up to now is        5.0 secs

     total energy              =    -426.17054324 Ry
     estimated scf accuracy    <       0.00006825 Ry

     iteration #  4     ecut=    40.00 Ry     beta= 0.50
     Davidson diagonalization with overlap
     ethr =  2.44E-07,  avg # of iterations =  3.7

     total cpu time spent up to now is        6.2 secs

     total energy              =    -426.17056649 Ry
     estimated scf accuracy    <       0.00000287 Ry

     iteration #  5     ecut=    40.00 Ry     beta= 0.50
     Davidson diagonalization with overlap
     ethr =  1.02E-08,  avg # of iterations =  3.8

     total cpu time spent up to now is        7.4 secs

     End of self-consistent calculation

          k = 0.0000 0.0000 0.0000 (  1291 PWs)   bands (ev):

   -16.6941 -16.6941 -16.6941 -16.6569 -16.6569 -16.4439 -16.4439 -16.4439
   -16.4300 -16.4300  -4.6453   8.0513   8.2052   8.2052

          k = 0.0707 0.0707-0.0707 (  1303 PWs)   bands (ev):

   -16.6999 -16.6999 -16.6924 -16.6489 -16.6489 -16.4527 -16.4527 -16.4459
   -16.4224 -16.4224  -4.5229   6.2685   7.9733   7.9733

          k = 0.1414 0.1414-0.1414 (  1315 PWs)   bands (ev):

   -16.7089 -16.7089 -16.6881 -16.6346 -16.6346 -16.4648 -16.4648 -16.4510
   -16.4132 -16.4132  -4.1626   4.3359   7.5300   7.5300

          k = 0.2121 0.2121-0.2121 (  1314 PWs)   bands (ev):

   -16.7151 -16.7151 -16.6826 -16.6228 -16.6228 -16.4735 -16.4735 -16.4575
   -16.4069 -16.4069  -3.5946   2.5730   7.1361   7.1361

          k = 0.2828 0.2828-0.2828 (  1299 PWs)   bands (ev):

   -16.7181 -16.7181 -16.6781 -16.6163 -16.6163 -16.4776 -16.4776 -16.4629
   -16.4037 -16.4037  -2.9268   1.1665   6.8821   6.8821

          k =-0.3536-0.3536 0.3536 (  1308 PWs)   bands (ev):

   -16.7188 -16.7188 -16.6763 -16.6146 -16.6146 -16.4785 -16.4785 -16.4650
   -16.4028 -16.4028  -2.5499   0.5402   6.7954   6.7954

          k = 0.1414 0.0000 0.0000 (  1299 PWs)   bands (ev):

   -16.6999 -16.6979 -16.6979 -16.6511 -16.6406 -16.4693 -16.4382 -16.4382
   -16.4353 -16.4174  -4.4817   6.2091   7.5740   7.5740

          k = 0.2121 0.0707-0.0707 (  1309 PWs)   bands (ev):

   -16.7102 -16.7044 -16.6932 -16.6407 -16.6249 -16.4859 -16.4503 -16.4385
   -16.4241 -16.4100  -4.1991   4.7592   7.0946   7.1145

          k = 0.2828 0.1414-0.1414 (  1312 PWs)   bands (ev):

   -16.7199 -16.7116 -16.6839 -16.6278 -16.6113 -16.4971 -16.4629 -16.4476
   -16.4139 -16.4014  -3.6948   3.0664   6.5772   6.7291

          k = 0.3536 0.2121-0.2121 (  1304 PWs)   bands (ev):

   -16.7259 -16.7168 -16.6738 -16.6171 -16.6051 -16.4993 -16.4735 -16.4595
   -16.4063 -16.3954  -3.0373   1.5704   6.1212   6.5443

          k =-0.2828-0.4243 0.4243 (  1307 PWs)   bands (ev):

   -16.7279 -16.7203 -16.6665 -16.6093 -16.6073 -16.4919 -16.4825 -16.4698
   -16.4010 -16.3936  -2.4886   0.6289   5.8263   6.5570

          k =-0.2121-0.3536 0.3536 (  1297 PWs)   bands (ev):

   -16.7260 -16.7222 -16.6657 -16.6140 -16.6053 -16.4892 -16.4788 -16.4749
   -16.3981 -16.3966  -2.6272   0.8486   5.7252   6.7592

          k =-0.1414-0.2828 0.2828 (  1298 PWs)   bands (ev):

   -16.7215 -16.7205 -16.6723 -16.6221 -16.6078 -16.4900 -16.4763 -16.4609
   -16.4043 -16.3984  -3.2672   2.0359   5.8420   7.1217

          k =-0.0707-0.2121 0.2121 (  1306 PWs)   bands (ev):

   -16.7172 -16.7118 -16.6826 -16.6320 -16.6188 -16.4825 -16.4709 -16.4444
   -16.4164 -16.4026  -3.8871   3.6110   6.2120   7.5783

          k = 0.0000-0.1414 0.1414 (  1311 PWs)   bands (ev):

   -16.7090 -16.7021 -16.6912 -16.6431 -16.6348 -16.4688 -16.4610 -16.4322
   -16.4307 -16.4108  -4.3205   5.2008   6.9400   7.9650

          k = 0.2828 0.0000 0.0000 (  1307 PWs)   bands (ev):

   -16.7072 -16.7072 -16.7029 -16.6343 -16.6069 -16.5096 -16.4508 -16.4237
   -16.4237 -16.4138  -3.9943   4.3314   6.5911   6.5911

          k = 0.3536 0.0707-0.0707 (  1315 PWs)   bands (ev):

   -16.7196 -16.7132 -16.6912 -16.6215 -16.5894 -16.5280 -16.4639 -16.4322
   -16.4135 -16.4033  -3.5597   3.1565   5.9802   6.2093

          k = 0.4243 0.1414-0.1414 (  1286 PWs)   bands (ev):

   -16.7311 -16.7189 -16.6737 -16.6080 -16.5797 -16.5358 -16.4786 -16.4512
   -16.4041 -16.3904  -2.9384   1.8354   5.2765   6.0219

          k =-0.2121-0.4950 0.4950 (  1301 PWs)   bands (ev):

   -16.7382 -16.7234 -16.6575 -16.5958 -16.5827 -16.5295 -16.4930 -16.4691
   -16.3970 -16.3825  -2.2937   0.7722   4.7443   6.0509

          k =-0.1414-0.4243 0.4243 (  1295 PWs)   bands (ev):

   -16.7394 -16.7264 -16.6488 -16.5960 -16.5872 -16.5120 -16.5048 -16.4794
   -16.3927 -16.3818  -2.1705   0.5984   4.4687   6.2899

          k =-0.0707-0.3536 0.3536 (  1302 PWs)   bands (ev):

   -16.7341 -16.7270 -16.6519 -16.6125 -16.5879 -16.5079 -16.4900 -16.4787
   -16.3920 -16.3889  -2.7377   1.4716   4.5175   6.7034

          k = 0.0000-0.2828 0.2828 (  1313 PWs)   bands (ev):

   -16.7239 -16.7236 -16.6667 -16.6241 -16.6006 -16.4987 -16.4802 -16.4590
   -16.4028 -16.3953  -3.3912   2.6399   5.0393   7.2022

          k = 0.4243 0.0000 0.0000 (  1291 PWs)   bands (ev):

   -16.7177 -16.7177 -16.6945 -16.6084 -16.5663 -16.5551 -16.4751 -16.4246
   -16.4067 -16.4067  -3.1941   2.5203   5.7917   5.7917

          k = 0.4950 0.0707-0.0707 (  1297 PWs)   bands (ev):

   -16.7281 -16.7224 -16.6778 -16.5930 -16.5729 -16.5489 -16.4905 -16.4439
   -16.3989 -16.3930  -2.6232   1.5490   5.1660   5.5657

          k =-0.1414-0.5657 0.5657 (  1296 PWs)   bands (ev):

   -16.7397 -16.7263 -16.6552 -16.5780 -16.5761 -16.5435 -16.5073 -16.4680
   -16.3927 -16.3801  -1.9431   0.6093   4.3694   5.5621

          k =-0.0707-0.4950 0.4950 (  1297 PWs)   bands (ev):

   -16.7457 -16.7289 -16.6417 -16.5664 -16.5640 -16.5527 -16.5219 -16.4817
   -16.3892 -16.3740  -1.5978   0.2042   3.8508   5.7803

          k =-0.0000-0.4243 0.4243 (  1306 PWs)   bands (ev):

   -16.7439 -16.7294 -16.6406 -16.5889 -16.5699 -16.5236 -16.5223 -16.4834
   -16.3888 -16.3769  -2.0787   0.7622   3.8336   6.1891

          k = 0.5657 0.0000 0.0000 (  1290 PWs)   bands (ev):

   -16.7256 -16.7256 -16.6737 -16.6007 -16.5761 -16.5235 -16.5060 -16.4487
   -16.3936 -16.3936  -2.1019   0.8085   5.2885   5.2885

          k =-0.0707-0.6364 0.6364 (  1299 PWs)   bands (ev):

   -16.7333 -16.7279 -16.6527 -16.6146 -16.5591 -16.5235 -16.5089 -16.4707
   -16.3898 -16.3850  -1.4241  -0.0010   4.7514   5.2324

          k = 0.0000-0.5657 0.5657 (  1296 PWs)   bands (ev):

   -16.7428 -16.7292 -16.6398 -16.5979 -16.5485 -16.5363 -16.5227 -16.4837
   -16.3882 -16.3759  -1.0331  -0.3727   4.0515   5.4041

          k =-0.7071 0.0000 0.0000 (  1298 PWs)   bands (ev):

   -16.7284 -16.7284 -16.6415 -16.6415 -16.5408 -16.5408 -16.4829 -16.4829
   -16.3887 -16.3887  -0.7516  -0.7516   5.1175   5.1175

          k = 0.2828 0.1414 0.0000 (  1313 PWs)   bands (ev):

   -16.7174 -16.7122 -16.6865 -16.6309 -16.6081 -16.5037 -16.4602 -16.4391
   -16.4174 -16.4030  -3.8415   3.7235   5.9713   7.0378

          k = 0.3536 0.2121-0.0707 (  1300 PWs)   bands (ev):

   -16.7261 -16.7207 -16.6717 -16.6193 -16.5942 -16.5151 -16.4713 -16.4567
   -16.4038 -16.3950  -3.2765   2.3817   5.2861   6.6591

          k =-0.2828-0.4243 0.5657 (  1289 PWs)   bands (ev):

   -16.7336 -16.7244 -16.6580 -16.6083 -16.5894 -16.5158 -16.4828 -16.4736
   -16.3965 -16.3878  -2.6058   1.1345   4.9609   6.3183

          k =-0.2121-0.3536 0.4950 (  1294 PWs)   bands (ev):

   -16.7364 -16.7255 -16.6525 -16.6009 -16.5920 -16.5100 -16.4944 -16.4778
   -16.3945 -16.3847  -2.2192   0.5415   4.8665   6.1882

          k = 0.4243 0.1414-0.0000 (  1302 PWs)   bands (ev):

   -16.7248 -16.7233 -16.6780 -16.6082 -16.5715 -16.5466 -16.4771 -16.4454
   -16.4006 -16.3966  -3.0592   2.2182   5.2202   5.9346

          k =-0.2121-0.4950 0.6364 (  1296 PWs)   bands (ev):

   -16.7360 -16.7280 -16.6569 -16.5945 -16.5633 -16.5525 -16.4930 -16.4674
   -16.3925 -16.3847  -2.4004   1.1760   4.5777   5.6252

          k =-0.1414-0.4243 0.5657 (  1298 PWs)   bands (ev):

   -16.7429 -16.7303 -16.6413 -16.5837 -16.5657 -16.5456 -16.5092 -16.4823
   -16.3888 -16.3771  -1.8363   0.4171   4.1589   5.5701

          k =-0.0707-0.3536 0.4950 (  1293 PWs)   bands (ev):

   -16.7425 -16.7310 -16.6392 -16.5906 -16.5681 -16.5366 -16.5088 -16.4849
   -16.3879 -16.3781  -2.0136   0.6468   4.0427   5.8008

          k = 0.0000-0.2828 0.4243 (  1299 PWs)   bands (ev):

   -16.7348 -16.7292 -16.6516 -16.6075 -16.5767 -16.5296 -16.4838 -16.4791
   -16.3901 -16.3878  -2.6702   1.5314   4.3694   6.2316

          k =-0.1414-0.5657 0.7071 (  1304 PWs)   bands (ev):

   -16.7313 -16.7312 -16.6587 -16.5897 -16.5770 -16.5320 -16.5071 -16.4636
   -16.3882 -16.3881  -2.0020   0.7170   4.8046   5.1489

          k =-0.0707-0.4950 0.6364 (  1294 PWs)   bands (ev):

   -16.7417 -16.7331 -16.6354 -16.5908 -16.5619 -16.5289 -16.5246 -16.4866
   -16.3852 -16.3773  -1.3380  -0.0228   4.1772   5.0552

          k =-0.0000-0.4243 0.5657 (  1290 PWs)   bands (ev):

   -16.7461 -16.7333 -16.6306 -16.5660 -16.5638 -16.5460 -16.5314 -16.4904
   -16.3849 -16.3733  -1.3765   0.0342   3.7972   5.3206

          k =-0.7071 0.1414 0.0000 (  1298 PWs)   bands (ev):

   -16.7340 -16.7340 -16.6284 -16.6284 -16.5418 -16.5418 -16.4943 -16.4943
   -16.3839 -16.3839  -0.7188  -0.7188   4.7717   4.7717

          k =-0.1414-0.4243 0.7071 (  1294 PWs)   bands (ev):

   -16.7412 -16.7360 -16.6327 -16.5793 -16.5681 -16.5450 -16.5138 -16.4888
   -16.3831 -16.3784  -1.7319   0.4382   4.1070   5.0859

          k =-0.0707-0.3536 0.6364 (  1300 PWs)   bands (ev):

   -16.7446 -16.7376 -16.6203 -16.5753 -16.5642 -16.5417 -16.5278 -16.4984
   -16.3811 -16.3745  -1.2787  -0.0439   3.9697   4.8472

          k =-0.7071 0.2828 0.0000 (  1286 PWs)   bands (ev):

   -16.7413 -16.7413 -16.6040 -16.6040 -16.5467 -16.5467 -16.5132 -16.5132
   -16.3773 -16.3773  -0.6633  -0.6633   4.3344   4.3344

     highest occupied level (ev):     8.2052

!    total energy              =    -426.17056735 Ry
     estimated scf accuracy    <       0.00000009 Ry

     The total energy is the sum of the following terms:
     one-electron contribution =    -278.67726319 Ry
     hartree contribution      =     164.82717634 Ry
     xc contribution           =    -114.54636726 Ry
     ewald contribution        =    -197.77411325 Ry

     convergence has been achieved in   5 iterations

     Forces acting on atoms (cartesian axes, Ry/au):

     atom    1 type  1   force =     0.00000000    0.00000000    0.00000000
     atom    2 type  1   force =     0.00000000    0.00000000    0.00000000

     Total force =     0.000000     Total SCF correction =     0.000000


     Computing stress (Cartesian axis) and pressure

          total   stress  (Ry/bohr**3)                   (kbar)     P=      -11.25
  -0.00007645  -0.00000000   0.00000000          -11.25       -0.00        0.00
  -0.00000000  -0.00007645   0.00000000           -0.00      -11.25        0.00
   0.00000000   0.00000000  -0.00007645            0.00        0.00      -11.25


     BFGS Geometry Optimization
     Energy error            =      1.3E-04 Ry
     Gradient error          =      0.0E+00 Ry/Bohr
     Cell gradient error     =      1.1E+01 kbar

     number of scf cycles    =   1
     number of bfgs steps    =   0

     enthalpy           new  =    -426.1705673498 Ry

     new trust radius        =       0.0066680253 bohr
     new conv_thr            =       0.0000001000 Ry

     new unit-cell volume =    302.54458 a.u.^3 (    44.83248 Ang^3 )
     density =      5.38025 g/cm^3

CELL_PARAMETERS (angstrom)
  -0.000000000   2.819600610   2.819600610
   2.819600610   0.000000000   2.819600610
   2.819600610   2.819600610   0.000000000

ATOMIC_POSITIONS (angstrom)
Ge               0.0000000000        0.0000000000        0.0000000000
Ge               1.4098003049        1.4098003049        1.4098003049


     Message from routine punch:
     Nothing written, as per user request (disk_io='none')
     NEW-OLD atomic charge density approx. for the potential
     New effective cutoffs (rho, wfc):  159.91   40.14

     Check: negative core charge=   -0.000004

     total cpu time spent up to now is        8.2 secs

     Self-consistent Calculation

     iteration #  1     ecut=    40.00 Ry     beta= 0.50
     Davidson diagonalization with overlap
     ethr =  1.00E-06,  avg # of iterations =  2.5

     Threshold (ethr) on eigenvalues was too large:
     Diagonalizing with lowered threshold

     Davidson diagonalization with overlap
     ethr =  3.32E-09,  avg # of iterations =  4.2

     total cpu time spent up to now is       10.6 secs

     total energy              =    -426.17067023 Ry
     estimated scf accuracy    <       0.00000061 Ry

     iteration #  2     ecut=    40.00 Ry     beta= 0.50
     Davidson diagonalization with overlap
     ethr =  2.19E-09,  avg # of iterations =  2.0

     total cpu time spent up to now is       11.5 secs

     End of self-consistent calculation

          k = 0.0000 0.0000 0.0000 (  1291 PWs)   bands (ev):

   -16.6274 -16.6274 -16.6274 -16.5897 -16.5897 -16.3736 -16.3736 -16.3736
   -16.3591 -16.3591  -4.6143   8.1783   8.2798   8.2798

          k = 0.0708 0.0708-0.0708 (  1303 PWs)   bands (ev):

   -16.6333 -16.6333 -16.6257 -16.5816 -16.5816 -16.3824 -16.3824 -16.3756
   -16.3515 -16.3515  -4.4912   6.3556   8.0462   8.0462

          k = 0.1417 0.1417-0.1417 (  1315 PWs)   bands (ev):

   -16.6424 -16.6424 -16.6213 -16.5670 -16.5670 -16.3946 -16.3946 -16.3808
   -16.3422 -16.3422  -4.1289   4.4095   7.6000   7.6000

          k = 0.2125 0.2125-0.2125 (  1314 PWs)   bands (ev):

   -16.6487 -16.6487 -16.6158 -16.5550 -16.5550 -16.4034 -16.4034 -16.3874
   -16.3359 -16.3359  -3.5575   2.6355   7.2038   7.2038

          k = 0.2834 0.2834-0.2834 (  1299 PWs)   bands (ev):

   -16.6517 -16.6517 -16.6112 -16.5486 -16.5486 -16.4075 -16.4075 -16.3929
   -16.3326 -16.3326  -2.8849   1.2197   6.9484   6.9484

          k =-0.3542-0.3542 0.3542 (  1308 PWs)   bands (ev):

   -16.6525 -16.6525 -16.6094 -16.5467 -16.5467 -16.4085 -16.4085 -16.3950
   -16.3317 -16.3317  -2.5048   0.5887   6.8613   6.8613

          k = 0.1417 0.0000 0.0000 (  1299 PWs)   bands (ev):

   -16.6334 -16.6312 -16.6312 -16.5838 -16.5731 -16.3993 -16.3677 -16.3677
   -16.3645 -16.3464  -4.4498   6.3012   7.6436   7.6436

          k = 0.2125 0.0708-0.0708 (  1309 PWs)   bands (ev):

   -16.6438 -16.6378 -16.6265 -16.5732 -16.5572 -16.4161 -16.3798 -16.3680
   -16.3534 -16.3390  -4.1657   4.8393   7.1612   7.1839

          k = 0.2834 0.1417-0.1417 (  1312 PWs)   bands (ev):

   -16.6536 -16.6451 -16.6171 -16.5601 -16.5433 -16.4275 -16.3926 -16.3772
   -16.3430 -16.3303  -3.6584   3.1342   6.6451   6.7936

          k = 0.3542 0.2125-0.2125 (  1304 PWs)   bands (ev):

   -16.6597 -16.6504 -16.6068 -16.5493 -16.5371 -16.4296 -16.4033 -16.3893
   -16.3353 -16.3242  -2.9965   1.6280   6.1871   6.6080

          k =-0.2834-0.4251 0.4251 (  1307 PWs)   bands (ev):

   -16.6617 -16.6540 -16.5995 -16.5414 -16.5393 -16.4222 -16.4125 -16.3997
   -16.3299 -16.3224  -2.4434   0.6794   5.8905   6.6211

          k =-0.2125-0.3542 0.3542 (  1297 PWs)   bands (ev):

   -16.6598 -16.6559 -16.5987 -16.5461 -16.5373 -16.4193 -16.4087 -16.4050
   -16.3269 -16.3254  -2.5832   0.9009   5.7881   6.8247

          k =-0.1417-0.2834 0.2834 (  1298 PWs)   bands (ev):

   -16.6553 -16.6542 -16.6053 -16.5544 -16.5398 -16.4201 -16.4063 -16.3906
   -16.3333 -16.3272  -3.2280   2.0967   5.9043   7.1896

          k =-0.0708-0.2125 0.2125 (  1306 PWs)   bands (ev):

   -16.6509 -16.6454 -16.6157 -16.5644 -16.5509 -16.4126 -16.4009 -16.3739
   -16.3455 -16.3314  -3.8518   3.6825   6.2744   7.6492

          k = 0.0000-0.1417 0.1417 (  1311 PWs)   bands (ev):

   -16.6426 -16.6355 -16.6245 -16.5757 -16.5673 -16.3987 -16.3909 -16.3616
   -16.3599 -16.3398  -4.2878   5.2831   7.0051   8.0383

          k = 0.2834 0.0000 0.0000 (  1307 PWs)   bands (ev):

   -16.6407 -16.6407 -16.6364 -16.5667 -16.5389 -16.4402 -16.3802 -16.3530
   -16.3530 -16.3427  -3.9597   4.4135   6.6544   6.6544

          k = 0.3542 0.0708-0.0708 (  1315 PWs)   bands (ev):

   -16.6532 -16.6468 -16.6245 -16.5537 -16.5211 -16.4589 -16.3935 -16.3615
   -16.3427 -16.3322  -3.5227   3.2304   6.0410   6.2704

          k = 0.4251 0.1417-0.1417 (  1286 PWs)   bands (ev):

   -16.6650 -16.6526 -16.6068 -16.5400 -16.5113 -16.4668 -16.4085 -16.3808
   -16.3331 -16.3191  -2.8975   1.8995   5.3345   6.0821

          k =-0.2125-0.4959 0.4959 (  1301 PWs)   bands (ev):

   -16.6722 -16.6572 -16.5903 -16.5276 -16.5144 -16.4604 -16.4232 -16.3990
   -16.3258 -16.3111  -2.2481   0.8281   4.7998   6.1115

          k =-0.1417-0.4251 0.4251 (  1295 PWs)   bands (ev):

   -16.6733 -16.6602 -16.5815 -16.5278 -16.5189 -16.4426 -16.4352 -16.4094
   -16.3214 -16.3104  -2.1236   0.6528   4.5221   6.3522

          k =-0.0708-0.3542 0.3542 (  1302 PWs)   bands (ev):

   -16.6680 -16.6608 -16.5846 -16.5446 -16.5196 -16.4383 -16.4203 -16.4086
   -16.3207 -16.3176  -2.6952   1.5329   4.5696   6.7683

          k = 0.0000-0.2834 0.2834 (  1313 PWs)   bands (ev):

   -16.6577 -16.6573 -16.5996 -16.5564 -16.5325 -16.4290 -16.4103 -16.3887
   -16.3317 -16.3240  -3.3530   2.7087   5.0931   7.2705

          k = 0.4251 0.0000 0.0000 (  1291 PWs)   bands (ev):

   -16.6513 -16.6513 -16.6280 -16.5404 -16.4976 -16.4864 -16.4049 -16.3538
   -16.3357 -16.3357  -3.1550   2.5925   5.8504   5.8504

          k = 0.4959 0.0708-0.0708 (  1297 PWs)   bands (ev):

   -16.6619 -16.6561 -16.6110 -16.5248 -16.5045 -16.4800 -16.4206 -16.3734
   -16.3278 -16.3217  -2.5808   1.6153   5.2207   5.6231

          k =-0.1417-0.5668 0.5668 (  1296 PWs)   bands (ev):

   -16.6736 -16.6600 -16.5881 -16.5095 -16.5078 -16.4745 -16.4377 -16.3978
   -16.3215 -16.3087  -1.8962   0.6694   4.4191   5.6196

          k =-0.0708-0.4959 0.4959 (  1297 PWs)   bands (ev):

   -16.6798 -16.6627 -16.5744 -16.4978 -16.4954 -16.4839 -16.4526 -16.4118
   -16.3178 -16.3024  -1.5478   0.2609   3.8969   5.8392

          k =-0.0000-0.4251 0.4251 (  1306 PWs)   bands (ev):

   -16.6779 -16.6632 -16.5732 -16.5206 -16.5013 -16.4544 -16.4530 -16.4135
   -16.3175 -16.3054  -2.0319   0.8222   3.8795   6.2506

          k = 0.5668 0.0000 0.0000 (  1290 PWs)   bands (ev):

   -16.6593 -16.6593 -16.6069 -16.5327 -16.5076 -16.4542 -16.4364 -16.3782
   -16.3224 -16.3224  -2.0566   0.8707   5.3443   5.3443

          k =-0.0708-0.6376 0.6376 (  1299 PWs)   bands (ev):

   -16.6672 -16.6617 -16.5855 -16.5469 -16.4903 -16.4541 -16.4394 -16.4005
   -16.3185 -16.3136  -1.3747   0.0566   4.8033   5.2879

          k = 0.0000-0.5668 0.5668 (  1296 PWs)   bands (ev):

   -16.6769 -16.6630 -16.5725 -16.5298 -16.4796 -16.4672 -16.4534 -16.4138
   -16.3169 -16.3044  -0.9802  -0.3179   4.0981   5.4607

          k =-0.7085 0.0000 0.0000 (  1298 PWs)   bands (ev):

   -16.6622 -16.6622 -16.5742 -16.5742 -16.4717 -16.4717 -16.4130 -16.4130
   -16.3174 -16.3174  -0.6985  -0.6985   5.1723   5.1723

          k = 0.2834 0.1417 0.0000 (  1313 PWs)   bands (ev):

   -16.6511 -16.6457 -16.6197 -16.5633 -16.5401 -16.4342 -16.3899 -16.3685
   -16.3466 -16.3318  -3.8060   3.7991   6.0307   7.1057

          k = 0.3542 0.2125-0.0708 (  1300 PWs)   bands (ev):

   -16.6599 -16.6544 -16.6047 -16.5516 -16.5260 -16.4458 -16.4011 -16.3864
   -16.3327 -16.3237  -3.2376   2.4483   5.3431   6.7241

          k =-0.2834-0.4251 0.5668 (  1289 PWs)   bands (ev):

   -16.6675 -16.6582 -16.5908 -16.5404 -16.5212 -16.4464 -16.4128 -16.4036
   -16.3253 -16.3165  -2.5623   1.1919   5.0180   6.3806

          k =-0.2125-0.3542 0.4959 (  1294 PWs)   bands (ev):

   -16.6704 -16.6592 -16.5853 -16.5328 -16.5238 -16.4405 -16.4246 -16.4079
   -16.3233 -16.3133  -2.1724   0.5940   4.9239   6.2494

          k = 0.4251 0.1417-0.0000 (  1302 PWs)   bands (ev):

   -16.6586 -16.6570 -16.6111 -16.5402 -16.5029 -16.4778 -16.4070 -16.3749
   -16.3295 -16.3253  -3.0192   2.2875   5.2751   5.9943

          k =-0.2125-0.4959 0.6376 (  1296 PWs)   bands (ev):

   -16.6699 -16.6618 -16.5898 -16.5263 -16.4946 -16.4837 -16.4231 -16.3972
   -16.3213 -16.3133  -2.3562   1.2387   4.6294   5.6825

          k =-0.1417-0.4251 0.5668 (  1298 PWs)   bands (ev):

   -16.6769 -16.6642 -16.5739 -16.5154 -16.4971 -16.4767 -16.4396 -16.4124
   -16.3175 -16.3056  -1.7878   0.4739   4.2085   5.6270

          k =-0.0708-0.3542 0.4959 (  1293 PWs)   bands (ev):

   -16.6765 -16.6648 -16.5718 -16.5223 -16.4994 -16.4675 -16.4393 -16.4150
   -16.3166 -16.3066  -1.9664   0.7053   4.0910   5.8594

          k = 0.0000-0.2834 0.4251 (  1299 PWs)   bands (ev):

   -16.6687 -16.6630 -16.5843 -16.5395 -16.5082 -16.4605 -16.4138 -16.4091
   -16.3188 -16.3165  -2.6275   1.5956   4.4190   6.2933

          k =-0.1417-0.5668 0.7085 (  1304 PWs)   bands (ev):

   -16.6651 -16.6651 -16.5916 -16.5216 -16.5085 -16.4628 -16.4374 -16.3934
   -16.3169 -16.3168  -1.9559   0.7788   4.8570   5.2030

          k =-0.0708-0.4959 0.6376 (  1294 PWs)   bands (ev):

   -16.6757 -16.6670 -16.5679 -16.5227 -16.4932 -16.4597 -16.4553 -16.4167
   -16.3138 -16.3058  -1.2873   0.0347   4.2248   5.1089

          k = 0.0000-0.4251 0.5668 (  1290 PWs)   bands (ev):

   -16.6802 -16.6672 -16.5630 -16.4974 -16.4952 -16.4770 -16.4622 -16.4206
   -16.3135 -16.3017  -1.3253   0.0913   3.8422   5.3760

          k =-0.7085 0.1417 0.0000 (  1298 PWs)   bands (ev):

   -16.6679 -16.6679 -16.5609 -16.5609 -16.4728 -16.4728 -16.4246 -16.4246
   -16.3125 -16.3125  -0.6651  -0.6651   4.8236   4.8236

          k =-0.1417-0.4251 0.7085 (  1294 PWs)   bands (ev):

   -16.6752 -16.6699 -16.5652 -16.5109 -16.4996 -16.4760 -16.4443 -16.4190
   -16.3116 -16.3069  -1.6834   0.4982   4.1545   5.1393

          k =-0.0708-0.3542 0.6376 (  1300 PWs)   bands (ev):

   -16.6787 -16.6715 -16.5525 -16.5069 -16.4956 -16.4727 -16.4585 -16.4287
   -16.3097 -16.3030  -1.2270   0.0132   4.0161   4.8989

          k =-0.7085 0.2834 0.0000 (  1286 PWs)   bands (ev):

   -16.6753 -16.6753 -16.5361 -16.5361 -16.4777 -16.4777 -16.4437 -16.4437
   -16.3058 -16.3058  -0.6086  -0.6086   4.3827   4.3827

     highest occupied level (ev):     8.2798

!    total energy              =    -426.17067024 Ry
     estimated scf accuracy    <       0.00000010 Ry

     The total energy is the sum of the following terms:
     one-electron contribution =    -278.05159199 Ry
     hartree contribution      =     164.58708830 Ry
     xc contribution           =    -114.55332604 Ry
     ewald contribution        =    -198.15284051 Ry

     convergence has been achieved in   2 iterations

     Forces acting on atoms (cartesian axes, Ry/au):

     atom    1 type  1   force =     0.00000000    0.00000000    0.00000000
     atom    2 type  1   force =    -0.00000000    0.00000000   -0.00000000

     Total force =     0.000000     Total SCF correction =     0.000000


     Computing stress (Cartesian axis) and pressure

          total   stress  (Ry/bohr**3)                   (kbar)     P=       -6.06
  -0.00004119   0.00000000   0.00000000           -6.06        0.00        0.00
   0.00000000  -0.00004119   0.00000000            0.00       -6.06        0.00
   0.00000000   0.00000000  -0.00004119            0.00        0.00       -6.06

     Energy error            =      1.0E-04 Ry
     Gradient error          =      1.4E-31 Ry/Bohr
     Cell gradient error     =      6.1E+00 kbar

     number of scf cycles    =   2
     number of bfgs steps    =   1

     enthalpy           old  =    -426.1705673498 Ry
     enthalpy           new  =    -426.1706702357 Ry

     CASE: enthalpy          _new < enthalpy          _old

     new trust radius        =       0.0077192892 bohr
     new conv_thr            =       0.0000000010 Ry

     new unit-cell volume =    300.53503 a.u.^3 (    44.53470 Ang^3 )
     density =      5.41622 g/cm^3

CELL_PARAMETERS (angstrom)
   0.000000000   2.813343983   2.813343983
   2.813343983   0.000000000   2.813343983
   2.813343983   2.813343983   0.000000000

ATOMIC_POSITIONS (angstrom)
Ge               0.0000000000       -0.0000000000        0.0000000000
Ge               1.4066719917        1.4066719917        1.4066719917


     Message from routine punch:
     Nothing written, as per user request (disk_io='none')
     NEW-OLD atomic charge density approx. for the potential
     New effective cutoffs (rho, wfc):  160.63   40.32

     Check: negative core charge=   -0.000004

     total cpu time spent up to now is       12.2 secs

     Self-consistent Calculation

     iteration #  1     ecut=    40.00 Ry     beta= 0.50
     Davidson diagonalization with overlap
     ethr =  1.00E-06,  avg # of iterations =  2.9

     Threshold (ethr) on eigenvalues was too large:
     Diagonalizing with lowered threshold

     Davidson diagonalization with overlap
     ethr =  3.33E-09,  avg # of iterations =  4.4

     total cpu time spent up to now is       14.6 secs

     total energy              =    -426.17073035 Ry
     estimated scf accuracy    <       0.00000062 Ry

     iteration #  2     ecut=    40.00 Ry     beta= 0.50
     Davidson diagonalization with overlap
     ethr =  2.20E-09,  avg # of iterations =  2.0

     total cpu time spent up to now is       15.5 secs

     total energy              =    -426.17073036 Ry
     estimated scf accuracy    <       0.00000011 Ry

     iteration #  3     ecut=    40.00 Ry     beta= 0.50
     Davidson diagonalization with overlap
     ethr =  3.82E-10,  avg # of iterations =  2.1

     total cpu time spent up to now is       16.5 secs

     total energy              =    -426.17073037 Ry
     estimated scf accuracy    <          2.0E-09 Ry

     iteration #  4     ecut=    40.00 Ry     beta= 0.50
     Davidson diagonalization with overlap
     ethr =  7.05E-12,  avg # of iterations =  3.1

     total cpu time spent up to now is       17.5 secs

     End of self-consistent calculation

          k = 0.0000 0.0000 0.0000 (  1291 PWs)   bands (ev):

   -16.5481 -16.5481 -16.5481 -16.5099 -16.5099 -16.2901 -16.2901 -16.2901
   -16.2750 -16.2750  -4.5762   8.3287   8.3693   8.3693

          k = 0.0710 0.0710-0.0710 (  1303 PWs)   bands (ev):

   -16.5541 -16.5541 -16.5464 -16.5016 -16.5016 -16.2989 -16.2989 -16.2921
   -16.2674 -16.2674  -4.4524   6.4589   8.1334   8.1334

          k = 0.1420 0.1420-0.1420 (  1315 PWs)   bands (ev):

   -16.5634 -16.5634 -16.5419 -16.4868 -16.4868 -16.3113 -16.3113 -16.2974
   -16.2579 -16.2579  -4.0877   4.4972   7.6838   7.6838

          k = 0.2130 0.2130-0.2130 (  1314 PWs)   bands (ev):

   -16.5698 -16.5698 -16.5363 -16.4746 -16.4746 -16.3201 -16.3201 -16.3041
   -16.2515 -16.2515  -3.5122   2.7102   7.2849   7.2849

          k = 0.2840 0.2840-0.2840 (  1299 PWs)   bands (ev):

   -16.5728 -16.5728 -16.5317 -16.4680 -16.4680 -16.3243 -16.3243 -16.3097
   -16.2482 -16.2482  -2.8341   1.2835   7.0280   7.0280

          k =-0.3550-0.3550 0.3550 (  1308 PWs)   bands (ev):

   -16.5736 -16.5736 -16.5299 -16.4662 -16.4662 -16.3252 -16.3252 -16.3118
   -16.2473 -16.2473  -2.4500   0.6468   6.9403   6.9403

          k = 0.1420 0.0000 0.0000 (  1299 PWs)   bands (ev):

   -16.5543 -16.5520 -16.5520 -16.5039 -16.4930 -16.3161 -16.2841 -16.2841
   -16.2805 -16.2621  -4.4107   6.4107   7.7270   7.7270

          k = 0.2130 0.0710-0.0710 (  1309 PWs)   bands (ev):

   -16.5648 -16.5587 -16.5473 -16.4931 -16.4768 -16.3333 -16.2961 -16.2844
   -16.2693 -16.2546  -4.1247   4.9346   7.2408   7.2668

          k = 0.2840 0.1420-0.1420 (  1312 PWs)   bands (ev):

   -16.5748 -16.5661 -16.5377 -16.4798 -16.4627 -16.3448 -16.3091 -16.2937
   -16.2588 -16.2458  -3.6140   3.2150   6.7262   6.8709

          k = 0.3550 0.2130-0.2130 (  1304 PWs)   bands (ev):

   -16.5810 -16.5715 -16.5273 -16.4688 -16.4563 -16.3470 -16.3200 -16.3059
   -16.2510 -16.2396  -2.9470   1.6969   6.2659   6.6844

          k =-0.2840-0.4260 0.4260 (  1307 PWs)   bands (ev):

   -16.5830 -16.5751 -16.5198 -16.4608 -16.4586 -16.3393 -16.3294 -16.3166
   -16.2455 -16.2378  -2.3886   0.7400   5.9672   6.6979

          k =-0.2130-0.3550 0.3550 (  1297 PWs)   bands (ev):

   -16.5810 -16.5771 -16.5190 -16.4656 -16.4565 -16.3363 -16.3255 -16.3220
   -16.2424 -16.2409  -2.5299   0.9635   5.8633   6.9033

          k =-0.1420-0.2840 0.2840 (  1298 PWs)   bands (ev):

   -16.5765 -16.5754 -16.5257 -16.4740 -16.4591 -16.3372 -16.3232 -16.3072
   -16.2489 -16.2427  -3.1804   2.1693   5.9788   7.2710

          k =-0.0710-0.2130 0.2130 (  1306 PWs)   bands (ev):

   -16.5720 -16.5664 -16.5363 -16.4841 -16.4704 -16.3296 -16.3177 -16.2901
   -16.2614 -16.2469  -3.8087   3.7678   6.3491   7.7341

          k = 0.0000-0.1420 0.1420 (  1311 PWs)   bands (ev):

   -16.5636 -16.5563 -16.5452 -16.4956 -16.4870 -16.3155 -16.3076 -16.2779
   -16.2758 -16.2554  -4.2476   5.3810   7.0830   8.1263

          k = 0.2840 0.0000 0.0000 (  1307 PWs)   bands (ev):

   -16.5616 -16.5616 -16.5575 -16.4865 -16.4581 -16.3578 -16.2965 -16.2690
   -16.2690 -16.2584  -3.9175   4.5114   6.7302   6.7302

          k = 0.3550 0.0710-0.0710 (  1315 PWs)   bands (ev):

   -16.5744 -16.5678 -16.5453 -16.4733 -16.4400 -16.3769 -16.3100 -16.2776
   -16.2585 -16.2478  -3.4775   3.3187   6.1137   6.3436

          k = 0.4260 0.1420-0.1420 (  1286 PWs)   bands (ev):

   -16.5864 -16.5737 -16.5273 -16.4593 -16.4300 -16.3849 -16.3253 -16.2972
   -16.2487 -16.2344  -2.8478   1.9763   5.4039   6.1543

          k =-0.2130-0.4970 0.4970 (  1301 PWs)   bands (ev):

   -16.5937 -16.5784 -16.5105 -16.4467 -16.4332 -16.3783 -16.3402 -16.3157
   -16.2413 -16.2263  -2.1927   0.8953   4.8663   6.1841

          k =-0.1420-0.4260 0.4260 (  1295 PWs)   bands (ev):

   -16.5949 -16.5815 -16.5015 -16.4469 -16.4378 -16.3602 -16.3525 -16.3263
   -16.2368 -16.2256  -2.0669   0.7181   4.5862   6.4268

          k =-0.0710-0.3550 0.3550 (  1302 PWs)   bands (ev):

   -16.5894 -16.5821 -16.5046 -16.4640 -16.4385 -16.3558 -16.3376 -16.3254
   -16.2360 -16.2329  -2.6437   1.6063   4.6321   6.8462

          k = 0.0000-0.2840 0.2840 (  1313 PWs)   bands (ev):

   -16.5790 -16.5785 -16.5199 -16.4760 -16.4516 -16.3463 -16.3274 -16.3052
   -16.2473 -16.2394  -3.3065   2.7911   5.1575   7.3524

          k = 0.4260 0.0000 0.0000 (  1291 PWs)   bands (ev):

   -16.5724 -16.5724 -16.5489 -16.4596 -16.4161 -16.4049 -16.3216 -16.2696
   -16.2514 -16.2514  -3.1075   2.6788   5.9207   5.9207

          k = 0.4970 0.0710-0.0710 (  1297 PWs)   bands (ev):

   -16.5832 -16.5772 -16.5316 -16.4438 -16.4233 -16.3981 -16.3376 -16.2896
   -16.2434 -16.2372  -2.5293   1.6947   5.2862   5.6920

          k =-0.1420-0.5680 0.5680 (  1296 PWs)   bands (ev):

   -16.5952 -16.5813 -16.5083 -16.4282 -16.4266 -16.3926 -16.3550 -16.3145
   -16.2369 -16.2238  -1.8394   0.7416   4.4785   5.6886

          k =-0.0710-0.4970 0.4970 (  1297 PWs)   bands (ev):

   -16.6015 -16.5840 -16.4943 -16.4162 -16.4139 -16.4022 -16.3702 -16.3287
   -16.2332 -16.2175  -1.4873   0.3290   3.9522   5.9099

          k =-0.0000-0.4260 0.4260 (  1306 PWs)   bands (ev):

   -16.5995 -16.5846 -16.4931 -16.4395 -16.4198 -16.3722 -16.3707 -16.3305
   -16.2328 -16.2206  -1.9753   0.8942   3.9345   6.3244

          k = 0.5680 0.0000 0.0000 (  1290 PWs)   bands (ev):

   -16.5805 -16.5805 -16.5275 -16.4521 -16.4262 -16.3719 -16.3536 -16.2945
   -16.2378 -16.2378  -2.0018   0.9455   5.4112   5.4112

          k =-0.0710-0.6390 0.6390 (  1299 PWs)   bands (ev):

   -16.5886 -16.5829 -16.5057 -16.4664 -16.4086 -16.3717 -16.3568 -16.3173
   -16.2338 -16.2288  -1.3150   0.1259   4.8654   5.3545

          k = 0.0000-0.5680 0.5680 (  1296 PWs)   bands (ev):

   -16.5984 -16.5843 -16.4925 -16.4490 -16.3977 -16.3851 -16.3711 -16.3307
   -16.2322 -16.2195  -0.9163  -0.2520   4.1539   5.5285

          k =-0.7100 0.0000 0.0000 (  1298 PWs)   bands (ev):

   -16.5835 -16.5835 -16.4943 -16.4943 -16.3896 -16.3896 -16.3299 -16.3299
   -16.2328 -16.2328  -0.6345  -0.6345   5.2381   5.2381

          k = 0.2840 0.1420 0.0000 (  1313 PWs)   bands (ev):

   -16.5723 -16.5668 -16.5404 -16.4830 -16.4594 -16.3517 -16.3064 -16.2847
   -16.2625 -16.2473  -3.7627   3.8893   6.1016   7.1870

          k = 0.3550 0.2130-0.0710 (  1300 PWs)   bands (ev):

   -16.5812 -16.5756 -16.5251 -16.4711 -16.4450 -16.3634 -16.3178 -16.3030
   -16.2484 -16.2391  -3.1902   2.5280   5.4112   6.8020

          k =-0.2840-0.4260 0.5680 (  1289 PWs)   bands (ev):

   -16.5889 -16.5794 -16.5110 -16.4597 -16.4401 -16.3640 -16.3297 -16.3204
   -16.2407 -16.2318  -2.5095   1.2607   5.0864   6.4552

          k =-0.2130-0.3550 0.4970 (  1294 PWs)   bands (ev):

   -16.5918 -16.5805 -16.5054 -16.4520 -16.4427 -16.3581 -16.3417 -16.3248
   -16.2387 -16.2286  -2.1157   0.6570   4.9926   6.3227

          k = 0.4260 0.1420-0.0000 (  1302 PWs)   bands (ev):

   -16.5798 -16.5782 -16.5317 -16.4595 -16.4215 -16.3961 -16.3238 -16.2912
   -16.2451 -16.2408  -2.9706   2.3705   5.3410   6.0659

          k =-0.2130-0.4970 0.6390 (  1296 PWs)   bands (ev):

   -16.5914 -16.5831 -16.5100 -16.4453 -16.4131 -16.4020 -16.3402 -16.3139
   -16.2367 -16.2286  -2.3026   1.3139   4.6913   5.7511

          k =-0.1420-0.4260 0.5680 (  1298 PWs)   bands (ev):

   -16.5985 -16.5855 -16.4938 -16.4343 -16.4156 -16.3949 -16.3570 -16.3293
   -16.2328 -16.2207  -1.7291   0.5421   4.2680   5.6951

          k =-0.0710-0.3550 0.4970 (  1293 PWs)   bands (ev):

   -16.5981 -16.5862 -16.4916 -16.4413 -16.4179 -16.3856 -16.3567 -16.3320
   -16.2318 -16.2217  -1.9092   0.7755   4.1489   5.9295

          k = 0.0000-0.2840 0.4260 (  1299 PWs)   bands (ev):

   -16.5901 -16.5844 -16.5044 -16.4588 -16.4269 -16.3784 -16.3308 -16.3261
   -16.2341 -16.2318  -2.5757   1.6725   4.4785   6.3671

          k =-0.1420-0.5680 0.7100 (  1304 PWs)   bands (ev):

   -16.5865 -16.5864 -16.5119 -16.4406 -16.4272 -16.3806 -16.3548 -16.3100
   -16.2322 -16.2321  -1.9001   0.8530   4.9198   5.2679

          k =-0.0710-0.4970 0.6390 (  1294 PWs)   bands (ev):

   -16.5973 -16.5884 -16.4878 -16.4418 -16.4116 -16.3775 -16.3730 -16.3337
   -16.2291 -16.2209  -1.2261   0.1038   4.2819   5.1731

          k =-0.0000-0.4260 0.5680 (  1290 PWs)   bands (ev):

   -16.6019 -16.5886 -16.4828 -16.4160 -16.4136 -16.3951 -16.3800 -16.3377
   -16.2287 -16.2167  -1.2634   0.1600   3.8961   5.4424

          k =-0.7100 0.1420 0.0000 (  1298 PWs)   bands (ev):

   -16.5893 -16.5893 -16.4806 -16.4806 -16.3907 -16.3907 -16.3418 -16.3418
   -16.2277 -16.2277  -0.6005  -0.6005   4.8859   4.8859

          k =-0.1420-0.4260 0.7100 (  1294 PWs)   bands (ev):

   -16.5968 -16.5914 -16.4850 -16.4296 -16.4182 -16.3940 -16.3618 -16.3361
   -16.2268 -16.2221  -1.6249   0.5702   4.2115   5.2031

          k =-0.0710-0.3550 0.6390 (  1300 PWs)   bands (ev):

   -16.6003 -16.5930 -16.4721 -16.4256 -16.4141 -16.3907 -16.3763 -16.3459
   -16.2248 -16.2180  -1.1646   0.0820   4.0717   4.9608

          k =-0.7100 0.2840 0.0000 (  1286 PWs)   bands (ev):

   -16.5968 -16.5968 -16.4553 -16.4553 -16.3959 -16.3959 -16.3612 -16.3612
   -16.2209 -16.2209  -0.5427  -0.5427   4.4406   4.4406

     highest occupied level (ev):     8.3693

!    total energy              =    -426.17073037 Ry
     estimated scf accuracy    <          1.4E-10 Ry

     The total energy is the sum of the following terms:
     one-electron contribution =    -277.32217442 Ry
     hartree contribution      =     164.30634278 Ry
     xc contribution           =    -114.56138395 Ry
     ewald contribution        =    -198.59351477 Ry

     convergence has been achieved in   4 iterations

     Forces acting on atoms (cartesian axes, Ry/au):

     atom    1 type  1   force =     0.00000000   -0.00000000   -0.00000000
     atom    2 type  1   force =     0.00000000    0.00000000   -0.00000000

     Total force =     0.000000     Total SCF correction =     0.000000


     Computing stress (Cartesian axis) and pressure

          total   stress  (Ry/bohr**3)                   (kbar)     P=       -2.10
  -0.00001426  -0.00000000  -0.00000000           -2.10       -0.00       -0.00
  -0.00000000  -0.00001426  -0.00000000           -0.00       -2.10       -0.00
  -0.00000000  -0.00000000  -0.00001426           -0.00       -0.00       -2.10

     Energy error            =      6.0E-05 Ry
     Gradient error          =      1.4E-31 Ry/Bohr
     Cell gradient error     =      2.1E+00 kbar

     number of scf cycles    =   3
     number of bfgs steps    =   2

     enthalpy           old  =    -426.1706702357 Ry
     enthalpy           new  =    -426.1707303690 Ry

     CASE: enthalpy          _new < enthalpy          _old

     new trust radius        =       0.0040526230 bohr
     new conv_thr            =       0.0000000010 Ry

     new unit-cell volume =    299.48242 a.u.^3 (    44.37872 Ang^3 )
     density =      5.43526 g/cm^3

CELL_PARAMETERS (angstrom)
   0.000000000   2.810055607   2.810055607
   2.810055607   0.000000000   2.810055607
   2.810055607   2.810055607   0.000000000

ATOMIC_POSITIONS (angstrom)
Ge               0.0000000000       -0.0000000000       -0.0000000000
Ge               1.4050278036        1.4050278036        1.4050278036


     Message from routine punch:
     Nothing written, as per user request (disk_io='none')
     NEW-OLD atomic charge density approx. for the potential
     New effective cutoffs (rho, wfc):  161.00   40.41

     Check: negative core charge=   -0.000004

     total cpu time spent up to now is       18.2 secs

     Self-consistent Calculation

     iteration #  1     ecut=    40.00 Ry     beta= 0.50
     Davidson diagonalization with overlap
     ethr =  1.00E-06,  avg # of iterations =  2.1

     Threshold (ethr) on eigenvalues was too large:
     Diagonalizing with lowered threshold

     Davidson diagonalization with overlap
     ethr =  1.19E-09,  avg # of iterations =  4.3

     total cpu time spent up to now is       20.6 secs

     total energy              =    -426.17072934 Ry
     estimated scf accuracy    <       0.00000020 Ry

     iteration #  2     ecut=    40.00 Ry     beta= 0.50
     Davidson diagonalization with overlap
     ethr =  7.07E-10,  avg # of iterations =  2.0

     total cpu time spent up to now is       21.5 secs

     total energy              =    -426.17072934 Ry
     estimated scf accuracy    <       0.00000003 Ry

     iteration #  3     ecut=    40.00 Ry     beta= 0.50
     Davidson diagonalization with overlap
     ethr =  1.19E-10,  avg # of iterations =  2.1

     total cpu time spent up to now is       22.4 secs

     End of self-consistent calculation

          k = 0.0000 0.0000 0.0000 (  1291 PWs)   bands (ev):

   -16.5065 -16.5065 -16.5065 -16.4680 -16.4680 -16.2462 -16.2462 -16.2462
   -16.2307 -16.2307  -4.5565   8.4079   8.4163   8.4163

          k = 0.0711 0.0711-0.0711 (  1303 PWs)   bands (ev):

   -16.5125 -16.5125 -16.5048 -16.4596 -16.4596 -16.2550 -16.2550 -16.2482
   -16.2231 -16.2231  -4.4322   6.5130   8.1792   8.1792

          k = 0.1422 0.1422-0.1422 (  1315 PWs)   bands (ev):

   -16.5219 -16.5219 -16.5002 -16.4446 -16.4446 -16.2674 -16.2674 -16.2535
   -16.2136 -16.2136  -4.0662   4.5431   7.7277   7.7277

          k = 0.2133 0.2133-0.2133 (  1314 PWs)   bands (ev):

   -16.5284 -16.5284 -16.4946 -16.4323 -16.4323 -16.2764 -16.2764 -16.2603
   -16.2071 -16.2071  -3.4887   2.7492   7.3275   7.3275

          k = 0.2843 0.2843-0.2843 (  1299 PWs)   bands (ev):

   -16.5314 -16.5314 -16.4899 -16.4257 -16.4257 -16.2805 -16.2805 -16.2659
   -16.2038 -16.2038  -2.8076   1.3169   7.0697   7.0697

          k =-0.3554-0.3554 0.3554 (  1308 PWs)   bands (ev):

   -16.5322 -16.5322 -16.4881 -16.4239 -16.4239 -16.2815 -16.2815 -16.2681
   -16.2029 -16.2029  -2.4214   0.6772   6.9817   6.9817

          k = 0.1422-0.0000 0.0000 (  1299 PWs)   bands (ev):

   -16.5127 -16.5104 -16.5104 -16.4619 -16.4508 -16.2724 -16.2401 -16.2401
   -16.2362 -16.2177  -4.3904   6.4680   7.7707   7.7707

          k = 0.2133 0.0711-0.0711 (  1309 PWs)   bands (ev):

   -16.5234 -16.5172 -16.5056 -16.4510 -16.4345 -16.2897 -16.2521 -16.2404
   -16.2252 -16.2102  -4.1034   4.9844   7.2826   7.3104

          k = 0.2843 0.1422-0.1422 (  1312 PWs)   bands (ev):

   -16.5334 -16.5246 -16.4960 -16.4376 -16.4202 -16.3013 -16.2652 -16.2497
   -16.2146 -16.2013  -3.5908   3.2573   6.7688   6.9115

          k = 0.3554 0.2133-0.2133 (  1304 PWs)   bands (ev):

   -16.5396 -16.5301 -16.4855 -16.4264 -16.4139 -16.3035 -16.2762 -16.2621
   -16.2067 -16.1951  -2.9211   1.7329   6.3073   6.7244

          k =-0.2843-0.4265 0.4265 (  1307 PWs)   bands (ev):

   -16.5417 -16.5337 -16.4779 -16.4184 -16.4162 -16.2957 -16.2856 -16.2728
   -16.2011 -16.1933  -2.3600   0.7716   6.0075   6.7382

          k =-0.2133-0.3554 0.3554 (  1297 PWs)   bands (ev):

   -16.5397 -16.5357 -16.4771 -16.4232 -16.4141 -16.2926 -16.2818 -16.2784
   -16.1980 -16.1965  -2.5020   0.9962   5.9028   6.9445

          k =-0.1422-0.2843 0.2843 (  1298 PWs)   bands (ev):

   -16.5351 -16.5339 -16.4839 -16.4317 -16.4166 -16.2936 -16.2795 -16.2634
   -16.2046 -16.1982  -3.1555   2.2073   6.0180   7.3137

          k =-0.0711-0.2133 0.2133 (  1306 PWs)   bands (ev):

   -16.5306 -16.5249 -16.4946 -16.4420 -16.4281 -16.2859 -16.2740 -16.2461
   -16.2172 -16.2025  -3.7863   3.8125   6.3883   7.7786

          k = 0.0000-0.1422 0.1422 (  1311 PWs)   bands (ev):

   -16.5221 -16.5148 -16.5035 -16.4536 -16.4449 -16.2717 -16.2637 -16.2338
   -16.2316 -16.2110  -4.2267   5.4322   7.1239   8.1724

          k = 0.2843-0.0000 0.0000 (  1307 PWs)   bands (ev):

   -16.5201 -16.5201 -16.5159 -16.4443 -16.4156 -16.3145 -16.2524 -16.2249
   -16.2249 -16.2140  -3.8955   4.5628   6.7700   6.7700

          k = 0.3554 0.0711-0.0711 (  1315 PWs)   bands (ev):

   -16.5330 -16.5263 -16.5037 -16.4310 -16.3974 -16.3337 -16.2661 -16.2335
   -16.2143 -16.2033  -3.4540   3.3650   6.1519   6.3821

          k = 0.4265 0.1422-0.1422 (  1286 PWs)   bands (ev):

   -16.5450 -16.5322 -16.4855 -16.4168 -16.3873 -16.3418 -16.2815 -16.2533
   -16.2043 -16.1899  -2.8219   2.0165   5.4403   6.1921

          k =-0.2133-0.4976 0.4976 (  1301 PWs)   bands (ev):

   -16.5524 -16.5370 -16.4686 -16.4041 -16.3905 -16.3351 -16.2966 -16.2719
   -16.1968 -16.1817  -2.1639   0.9304   4.9012   6.2222

          k =-0.1422-0.4265 0.4265 (  1295 PWs)   bands (ev):

   -16.5536 -16.5401 -16.4595 -16.4044 -16.3952 -16.3168 -16.3090 -16.2826
   -16.1923 -16.1810  -2.0373   0.7522   4.6198   6.4659

          k =-0.0711-0.3554 0.3554 (  1302 PWs)   bands (ev):

   -16.5482 -16.5407 -16.4626 -16.4216 -16.3958 -16.3123 -16.2941 -16.2816
   -16.1915 -16.1884  -2.6168   1.6447   4.6648   6.8871

          k = 0.0000-0.2843 0.2843 (  1313 PWs)   bands (ev):

   -16.5376 -16.5371 -16.4780 -16.4338 -16.4090 -16.3028 -16.2837 -16.2612
   -16.2030 -16.1949  -3.2822   2.8342   5.1913   7.3954

          k = 0.4265-0.0000 0.0000 (  1291 PWs)   bands (ev):

   -16.5310 -16.5310 -16.5074 -16.4172 -16.3732 -16.3620 -16.2778 -16.2254
   -16.2071 -16.2071  -3.0828   2.7240   5.9575   5.9575

          k = 0.4976 0.0711-0.0711 (  1297 PWs)   bands (ev):

   -16.5418 -16.5358 -16.4899 -16.4012 -16.3806 -16.3551 -16.2939 -16.2456
   -16.1989 -16.1927  -2.5025   1.7363   5.3205   5.7281

          k =-0.1422-0.5687 0.5687 (  1296 PWs)   bands (ev):

   -16.5539 -16.5399 -16.4664 -16.3854 -16.3839 -16.3495 -16.3115 -16.2707
   -16.1924 -16.1792  -1.8097   0.7794   4.5096   5.7247

          k =-0.0711-0.4976 0.4976 (  1297 PWs)   bands (ev):

   -16.5603 -16.5426 -16.4523 -16.3734 -16.3710 -16.3593 -16.3269 -16.2850
   -16.1886 -16.1728  -1.4557   0.3647   3.9811   5.9469

          k =-0.0000-0.4265 0.4265 (  1306 PWs)   bands (ev):

   -16.5583 -16.5432 -16.4510 -16.3969 -16.3769 -16.3290 -16.3274 -16.2868
   -16.1882 -16.1759  -1.9457   0.9318   3.9633   6.3631

          k = 0.5687-0.0000 0.0000 (  1290 PWs)   bands (ev):

   -16.5391 -16.5391 -16.4858 -16.4096 -16.3834 -16.3286 -16.3101 -16.2505
   -16.1934 -16.1934  -1.9732   0.9846   5.4463   5.4463

          k =-0.0711-0.6398 0.6398 (  1299 PWs)   bands (ev):

   -16.5472 -16.5416 -16.4638 -16.4242 -16.3656 -16.3284 -16.3134 -16.2735
   -16.1893 -16.1843  -1.2838   0.1622   4.8979   5.3894

          k = 0.0000-0.5687 0.5687 (  1296 PWs)   bands (ev):

   -16.5572 -16.5429 -16.4504 -16.4065 -16.3546 -16.3419 -16.3279 -16.2870
   -16.1876 -16.1748  -0.8829  -0.2175   4.1832   5.5641

          k =-0.7109 0.0000-0.0000 (  1298 PWs)   bands (ev):

   -16.5421 -16.5421 -16.4523 -16.4523 -16.3465 -16.3465 -16.2862 -16.2862
   -16.1882 -16.1882  -0.6010  -0.6010   5.2726   5.2726

          k = 0.2843 0.1422 0.0000 (  1313 PWs)   bands (ev):

   -16.5309 -16.5253 -16.4987 -16.4408 -16.4169 -16.3083 -16.2625 -16.2406
   -16.2183 -16.2029  -3.7402   3.9366   6.1388   7.2297

          k = 0.3554 0.2133-0.0711 (  1300 PWs)   bands (ev):

   -16.5399 -16.5341 -16.4833 -16.4288 -16.4024 -16.3202 -16.2740 -16.2591
   -16.2040 -16.1946  -3.1656   2.5696   5.4470   6.8429

          k =-0.2843-0.4265 0.5687 (  1289 PWs)   bands (ev):

   -16.5477 -16.5381 -16.4691 -16.4173 -16.3975 -16.3207 -16.2859 -16.2767
   -16.1963 -16.1872  -2.4819   1.2966   5.1223   6.4944

          k =-0.2133-0.3554 0.4976 (  1294 PWs)   bands (ev):

   -16.5506 -16.5391 -16.4634 -16.4095 -16.4002 -16.3147 -16.2981 -16.2811
   -16.1942 -16.1840  -2.0861   0.6899   5.0287   6.3612

          k = 0.4265 0.1422 0.0000 (  1302 PWs)   bands (ev):

   -16.5385 -16.5368 -16.4899 -16.4171 -16.3787 -16.3531 -16.2800 -16.2472
   -16.2007 -16.1963  -2.9453   2.4139   5.3755   6.1034

          k =-0.2133-0.4976 0.6398 (  1296 PWs)   bands (ev):

   -16.5501 -16.5417 -16.4680 -16.4027 -16.3702 -16.3591 -16.2966 -16.2701
   -16.1922 -16.1840  -2.2747   1.3533   4.7238   5.7871

          k =-0.1422-0.4265 0.5687 (  1298 PWs)   bands (ev):

   -16.5573 -16.5442 -16.4517 -16.3916 -16.3728 -16.3519 -16.3135 -16.2857
   -16.1883 -16.1760  -1.6984   0.5778   4.2991   5.7308

          k =-0.0711-0.3554 0.4976 (  1293 PWs)   bands (ev):

   -16.5569 -16.5449 -16.4495 -16.3987 -16.3751 -16.3424 -16.3133 -16.2883
   -16.1873 -16.1771  -1.8793   0.8123   4.1793   5.9663

          k = 0.0000-0.2843 0.4265 (  1299 PWs)   bands (ev):

   -16.5488 -16.5431 -16.4624 -16.4164 -16.3841 -16.3353 -16.2871 -16.2824
   -16.1896 -16.1873  -2.5487   1.7128   4.5097   6.4059

          k =-0.1422-0.5687 0.7109 (  1304 PWs)   bands (ev):

   -16.5451 -16.5451 -16.4700 -16.3981 -16.3844 -16.3375 -16.3113 -16.2662
   -16.1877 -16.1875  -1.8709   0.8919   4.9527   5.3020

          k =-0.0711-0.4976 0.6398 (  1294 PWs)   bands (ev):

   -16.5560 -16.5470 -16.4457 -16.3992 -16.3687 -16.3343 -16.3297 -16.2901
   -16.1845 -16.1762  -1.1941   0.1400   4.3119   5.2068

          k =-0.0000-0.4265 0.5687 (  1290 PWs)   bands (ev):

   -16.5607 -16.5473 -16.4406 -16.3732 -16.3707 -16.3520 -16.3368 -16.2941
   -16.1842 -16.1720  -1.2311   0.1959   3.9244   5.4772

          k =-0.7109 0.1422 0.0000 (  1298 PWs)   bands (ev):

   -16.5479 -16.5479 -16.4385 -16.4385 -16.3476 -16.3476 -16.2982 -16.2982
   -16.1831 -16.1831  -0.5666  -0.5666   4.9185   4.9185

          k =-0.1422-0.4265 0.7109 (  1294 PWs)   bands (ev):

   -16.5556 -16.5501 -16.4428 -16.3869 -16.3755 -16.3510 -16.3184 -16.2925
   -16.1822 -16.1774  -1.5942   0.6080   4.2413   5.2366

          k =-0.0711-0.3554 0.6398 (  1300 PWs)   bands (ev):

   -16.5591 -16.5518 -16.4298 -16.3829 -16.3712 -16.3476 -16.3330 -16.3024
   -16.1802 -16.1733  -1.1320   0.1180   4.1008   4.9932

          k =-0.7109 0.2843 0.0000 (  1286 PWs)   bands (ev):

   -16.5556 -16.5556 -16.4129 -16.4129 -16.3528 -16.3528 -16.3178 -16.3178
   -16.1763 -16.1763  -0.5082  -0.5082   4.4710   4.4710

     highest occupied level (ev):     8.4163

!    total energy              =    -426.17072934 Ry
     estimated scf accuracy    <          6.1E-10 Ry

     The total energy is the sum of the following terms:
     one-electron contribution =    -276.93788801 Ry
     hartree contribution      =     164.15871448 Ry
     xc contribution           =    -114.56564345 Ry
     ewald contribution        =    -198.82591237 Ry

     convergence has been achieved in   3 iterations

     Forces acting on atoms (cartesian axes, Ry/au):

     atom    1 type  1   force =    -0.00000000    0.00000000   -0.00000000
     atom    2 type  1   force =     0.00000000   -0.00000000    0.00000000

     Total force =     0.000000     Total SCF correction =     0.000000


     Computing stress (Cartesian axis) and pressure

          total   stress  (Ry/bohr**3)                   (kbar)     P=        0.35
   0.00000239   0.00000000   0.00000000            0.35        0.00        0.00
  -0.00000000   0.00000239  -0.00000000           -0.00        0.35       -0.00
  -0.00000000   0.00000000   0.00000239           -0.00        0.00        0.35

     Energy error            =      1.0E-06 Ry
     Gradient error          =      5.6E-31 Ry/Bohr
     Cell gradient error     =      3.5E-01 kbar

     bfgs converged in   4 scf cycles and   3 bfgs steps
     (criteria: energy <  1.0E-04 Ry, force <  1.0E-03 Ry/Bohr, cell <  5.0E-01 kbar)

     End of BFGS Geometry Optimization

     Final enthalpy           =    -426.1707293440 Ry

     File /home/bond/Work/Lab3/Problem7/Relax/alat_relax/pwscf.bfgs deleted, as requested
Begin final coordinates
     new unit-cell volume =    299.48242 a.u.^3 (    44.37872 Ang^3 )
     density =      5.43526 g/cm^3

CELL_PARAMETERS (angstrom)
   0.000000000   2.810055607   2.810055607
   2.810055607   0.000000000   2.810055607
   2.810055607   2.810055607   0.000000000

ATOMIC_POSITIONS (angstrom)
Ge               0.0000000000       -0.0000000000       -0.0000000000
Ge               1.4050278036        1.4050278036        1.4050278036
End final coordinates


     Message from routine punch:
     Nothing written, as per user request (disk_io='none')

     Final scf calculation at the relaxed structure.
     The G-vectors are recalculated for the final unit cell
     Results may differ from those at the preceding step.

     G-vector sticks info
     --------------------
     sticks:   dense  smooth     PW     G-vecs:    dense   smooth      PW
     Sum         625     625    199                10177    10177    1807

     Using Slab Decomposition



     bravais-lattice index     =            0
     lattice parameter (alat)  =       7.5497  a.u.
     unit-cell volume          =     299.4824 (a.u.)^3
     number of atoms/cell      =            2
     number of atomic types    =            1
     number of electrons       =        28.00
     number of Kohn-Sham states=           14
     kinetic-energy cutoff     =      40.0000  Ry
     charge density cutoff     =     160.0000  Ry
     scf convergence threshold =      1.0E-09
     mixing beta               =       0.5000
     number of iterations used =            8  plain     mixing
     press convergence thresh. =      5.0E-01
     Exchange-correlation=  SLA  PZ   NOGX NOGC
                           (   1   1   0   0   0   0   0)

     celldm(1)=   7.549746  celldm(2)=   0.000000  celldm(3)=   0.000000
     celldm(4)=   0.000000  celldm(5)=   0.000000  celldm(6)=   0.000000

     crystal axes: (cart. coord. in units of alat)
               a(1) = (   0.000000   0.703366   0.703366 )  
               a(2) = (   0.703366   0.000000   0.703366 )  
               a(3) = (   0.703366   0.703366   0.000000 )  

     reciprocal axes: (cart. coord. in units 2 pi/alat)
               b(1) = ( -0.710867  0.710867  0.710867 )  
               b(2) = (  0.710867 -0.710867  0.710867 )  
               b(3) = (  0.710867  0.710867 -0.710867 )  


     PseudoPot. # 1 for Ge read from file:
     /home/bond/Software/QE/qe-7.4.1/pseudo/ge_lda_v1.4.uspp.F.UPF
     MD5 check sum: bf9d52b59cc8a669818bb2b52e0c2ba0
     Pseudo is Ultrasoft + core correction, Zval = 14.0
     Generated by new atomic code, or converted to UPF format
     Using radial grid of  873 points,  6 beta functions with: 
                l(1) =   0
                l(2) =   0
                l(3) =   1
                l(4) =   1
                l(5) =   2
                l(6) =   2
     Q(r) pseudized with  8 coefficients,  rinner =    1.400   1.400   1.400
                                                       1.400   1.400

     atomic species   valence    mass     pseudopotential
     Ge               14.00    72.63000     Ge( 1.00)

     48 Sym. Ops., with inversion, found (24 have fractional translation)



   Cartesian axes

     site n.     atom                  positions (alat units)
         1        Ge     tau(   1) = (   0.0000000  -0.0000000  -0.0000000  )
         2        Ge     tau(   2) = (   0.3516831   0.3516831   0.3516831  )

     number of k points=    47
                       cart. coord. in units 2pi/alat
        k(    1) = (   0.0000000   0.0000000   0.0000000), wk =   0.0020000
        k(    2) = (   0.0710867   0.0710867  -0.0710867), wk =   0.0160000
        k(    3) = (   0.1421735   0.1421735  -0.1421735), wk =   0.0160000
        k(    4) = (   0.2132602   0.2132602  -0.2132602), wk =   0.0160000
        k(    5) = (   0.2843469   0.2843469  -0.2843469), wk =   0.0160000
        k(    6) = (  -0.3554337  -0.3554337   0.3554337), wk =   0.0080000
        k(    7) = (   0.1421735  -0.0000000   0.0000000), wk =   0.0120000
        k(    8) = (   0.2132602   0.0710867  -0.0710867), wk =   0.0480000
        k(    9) = (   0.2843469   0.1421735  -0.1421735), wk =   0.0480000
        k(   10) = (   0.3554337   0.2132602  -0.2132602), wk =   0.0480000
        k(   11) = (  -0.2843469  -0.4265204   0.4265204), wk =   0.0480000
        k(   12) = (  -0.2132602  -0.3554337   0.3554337), wk =   0.0480000
        k(   13) = (  -0.1421735  -0.2843469   0.2843469), wk =   0.0480000
        k(   14) = (  -0.0710867  -0.2132602   0.2132602), wk =   0.0480000
        k(   15) = (   0.0000000  -0.1421735   0.1421735), wk =   0.0240000
        k(   16) = (   0.2843469  -0.0000000   0.0000000), wk =   0.0120000
        k(   17) = (   0.3554337   0.0710867  -0.0710867), wk =   0.0480000
        k(   18) = (   0.4265204   0.1421735  -0.1421735), wk =   0.0480000
        k(   19) = (  -0.2132602  -0.4976071   0.4976071), wk =   0.0480000
        k(   20) = (  -0.1421735  -0.4265204   0.4265204), wk =   0.0480000
        k(   21) = (  -0.0710867  -0.3554337   0.3554337), wk =   0.0480000
        k(   22) = (   0.0000000  -0.2843469   0.2843469), wk =   0.0240000
        k(   23) = (   0.4265204  -0.0000000   0.0000000), wk =   0.0120000
        k(   24) = (   0.4976071   0.0710867  -0.0710867), wk =   0.0480000
        k(   25) = (  -0.1421735  -0.5686938   0.5686938), wk =   0.0480000
        k(   26) = (  -0.0710867  -0.4976071   0.4976071), wk =   0.0480000
        k(   27) = (  -0.0000000  -0.4265204   0.4265204), wk =   0.0240000
        k(   28) = (   0.5686938  -0.0000000   0.0000000), wk =   0.0120000
        k(   29) = (  -0.0710867  -0.6397806   0.6397806), wk =   0.0480000
        k(   30) = (   0.0000000  -0.5686938   0.5686938), wk =   0.0240000
        k(   31) = (  -0.7108673   0.0000000  -0.0000000), wk =   0.0060000
        k(   32) = (   0.2843469   0.1421735   0.0000000), wk =   0.0480000
        k(   33) = (   0.3554337   0.2132602  -0.0710867), wk =   0.0960000
        k(   34) = (  -0.2843469  -0.4265204   0.5686938), wk =   0.0960000
        k(   35) = (  -0.2132602  -0.3554337   0.4976071), wk =   0.0480000
        k(   36) = (   0.4265204   0.1421735   0.0000000), wk =   0.0480000
        k(   37) = (  -0.2132602  -0.4976071   0.6397806), wk =   0.0960000
        k(   38) = (  -0.1421735  -0.4265204   0.5686938), wk =   0.0960000
        k(   39) = (  -0.0710867  -0.3554337   0.4976071), wk =   0.0960000
        k(   40) = (   0.0000000  -0.2843469   0.4265204), wk =   0.0480000
        k(   41) = (  -0.1421735  -0.5686938   0.7108673), wk =   0.0480000
        k(   42) = (  -0.0710867  -0.4976071   0.6397806), wk =   0.0960000
        k(   43) = (  -0.0000000  -0.4265204   0.5686938), wk =   0.0480000
        k(   44) = (  -0.7108673   0.1421735   0.0000000), wk =   0.0240000
        k(   45) = (  -0.1421735  -0.4265204   0.7108673), wk =   0.0480000
        k(   46) = (  -0.0710867  -0.3554337   0.6397806), wk =   0.0480000
        k(   47) = (  -0.7108673   0.2843469   0.0000000), wk =   0.0240000

     Dense  grid:    10177 G-vectors     FFT dimensions: (  32,  32,  32)

     Estimated max dynamical RAM per process >      53.62 MB

     Check: negative core charge=   -0.000004

     Initial potential from superposition of free atoms

     starting charge      27.9986, renormalised to      28.0000
     Starting wfcs are   18 randomized atomic wfcs

     total cpu time spent up to now is       23.6 secs

     Self-consistent Calculation

     iteration #  1     ecut=    40.00 Ry     beta= 0.50
     Davidson diagonalization with overlap
     ethr =  1.00E-06,  avg # of iterations =  6.2

     total cpu time spent up to now is       25.6 secs

     total energy              =    -426.17150404 Ry
     estimated scf accuracy    <       0.03602448 Ry

     iteration #  2     ecut=    40.00 Ry     beta= 0.50
     Davidson diagonalization with overlap
     ethr =  1.29E-04,  avg # of iterations =  1.0

     total cpu time spent up to now is       26.4 secs

     total energy              =    -426.17026438 Ry
     estimated scf accuracy    <       0.00611158 Ry

     iteration #  3     ecut=    40.00 Ry     beta= 0.50
     Davidson diagonalization with overlap
     ethr =  2.18E-05,  avg # of iterations =  2.0

     total cpu time spent up to now is       27.3 secs

     total energy              =    -426.17070959 Ry
     estimated scf accuracy    <       0.00006611 Ry

     iteration #  4     ecut=    40.00 Ry     beta= 0.50
     Davidson diagonalization with overlap
     ethr =  2.36E-07,  avg # of iterations =  3.2

     total cpu time spent up to now is       28.5 secs

     total energy              =    -426.17072642 Ry
     estimated scf accuracy    <       0.00000227 Ry

     iteration #  5     ecut=    40.00 Ry     beta= 0.50
     Davidson diagonalization with overlap
     ethr =  8.12E-09,  avg # of iterations =  2.7

     total cpu time spent up to now is       29.5 secs

     total energy              =    -426.17072693 Ry
     estimated scf accuracy    <       0.00000008 Ry

     iteration #  6     ecut=    40.00 Ry     beta= 0.50
     Davidson diagonalization with overlap
     ethr =  2.71E-10,  avg # of iterations =  3.0

     total cpu time spent up to now is       30.7 secs

     total energy              =    -426.17072696 Ry
     estimated scf accuracy    <       0.00000002 Ry

     iteration #  7     ecut=    40.00 Ry     beta= 0.50
     Davidson diagonalization with overlap
     ethr =  7.32E-11,  avg # of iterations =  2.1

     total cpu time spent up to now is       31.8 secs

     total energy              =    -426.17072696 Ry
     estimated scf accuracy    <          1.1E-09 Ry

     iteration #  8     ecut=    40.00 Ry     beta= 0.50
     Davidson diagonalization with overlap
     ethr =  3.78E-12,  avg # of iterations =  3.2

     total cpu time spent up to now is       33.0 secs

     End of self-consistent calculation

          k = 0.0000 0.0000 0.0000 (  1243 PWs)   bands (ev):

   -16.5066 -16.5066 -16.5066 -16.4681 -16.4681 -16.2463 -16.2463 -16.2463
   -16.2308 -16.2308  -4.5565   8.4079   8.4163   8.4163

          k = 0.0711 0.0711-0.0711 (  1279 PWs)   bands (ev):

   -16.5126 -16.5126 -16.5049 -16.4597 -16.4597 -16.2552 -16.2552 -16.2483
   -16.2232 -16.2232  -4.4322   6.5129   8.1792   8.1792

          k = 0.1422 0.1422-0.1422 (  1296 PWs)   bands (ev):

   -16.5220 -16.5220 -16.5004 -16.4447 -16.4447 -16.2675 -16.2675 -16.2536
   -16.2137 -16.2137  -4.0663   4.5431   7.7277   7.7277

          k = 0.2133 0.2133-0.2133 (  1287 PWs)   bands (ev):

   -16.5285 -16.5285 -16.4947 -16.4324 -16.4324 -16.2765 -16.2765 -16.2604
   -16.2072 -16.2072  -3.4887   2.7492   7.3274   7.3274

          k = 0.2843 0.2843-0.2843 (  1281 PWs)   bands (ev):

   -16.5315 -16.5315 -16.4900 -16.4258 -16.4258 -16.2806 -16.2806 -16.2660
   -16.2040 -16.2040  -2.8076   1.3169   7.0696   7.0696

          k =-0.3554-0.3554 0.3554 (  1260 PWs)   bands (ev):

   -16.5323 -16.5323 -16.4882 -16.4240 -16.4240 -16.2816 -16.2816 -16.2682
   -16.2030 -16.2030  -2.4214   0.6772   6.9817   6.9817

          k = 0.1422-0.0000 0.0000 (  1287 PWs)   bands (ev):

   -16.5128 -16.5105 -16.5105 -16.4620 -16.4510 -16.2725 -16.2402 -16.2402
   -16.2364 -16.2179  -4.3904   6.4679   7.7707   7.7707

          k = 0.2133 0.0711-0.0711 (  1296 PWs)   bands (ev):

   -16.5235 -16.5173 -16.5058 -16.4511 -16.4346 -16.2898 -16.2522 -16.2405
   -16.2253 -16.2103  -4.1035   4.9844   7.2826   7.3103

          k = 0.2843 0.1422-0.1422 (  1291 PWs)   bands (ev):

   -16.5335 -16.5247 -16.4961 -16.4377 -16.4204 -16.3014 -16.2653 -16.2498
   -16.2147 -16.2014  -3.5909   3.2572   6.7688   6.9115

          k = 0.3554 0.2133-0.2133 (  1280 PWs)   bands (ev):

   -16.5397 -16.5302 -16.4856 -16.4266 -16.4140 -16.3036 -16.2763 -16.2622
   -16.2068 -16.1953  -2.9212   1.7328   6.3073   6.7244

          k =-0.2843-0.4265 0.4265 (  1273 PWs)   bands (ev):

   -16.5418 -16.5338 -16.4780 -16.4185 -16.4163 -16.2958 -16.2858 -16.2729
   -16.2012 -16.1935  -2.3600   0.7716   6.0075   6.7381

          k =-0.2133-0.3554 0.3554 (  1277 PWs)   bands (ev):

   -16.5398 -16.5358 -16.4772 -16.4233 -16.4142 -16.2928 -16.2819 -16.2785
   -16.1981 -16.1966  -2.5021   0.9962   5.9028   6.9444

          k =-0.1422-0.2843 0.2843 (  1286 PWs)   bands (ev):

   -16.5352 -16.5341 -16.4840 -16.4318 -16.4168 -16.2937 -16.2796 -16.2635
   -16.2047 -16.1983  -3.1556   2.2073   6.0179   7.3136

          k =-0.0711-0.2133 0.2133 (  1289 PWs)   bands (ev):

   -16.5307 -16.5250 -16.4947 -16.4421 -16.4282 -16.2860 -16.2741 -16.2462
   -16.2173 -16.2026  -3.7863   3.8124   6.3883   7.7786

          k = 0.0000-0.1422 0.1422 (  1287 PWs)   bands (ev):

   -16.5222 -16.5149 -16.5037 -16.4537 -16.4450 -16.2718 -16.2639 -16.2339
   -16.2318 -16.2111  -4.2268   5.4322   7.1238   8.1723

          k = 0.2843-0.0000 0.0000 (  1295 PWs)   bands (ev):

   -16.5202 -16.5202 -16.5161 -16.4444 -16.4157 -16.3146 -16.2525 -16.2250
   -16.2250 -16.2141  -3.8956   4.5627   6.7700   6.7700

          k = 0.3554 0.0711-0.0711 (  1294 PWs)   bands (ev):

   -16.5331 -16.5264 -16.5038 -16.4311 -16.3975 -16.3339 -16.2662 -16.2336
   -16.2144 -16.2035  -3.4541   3.3649   6.1518   6.3820

          k = 0.4265 0.1422-0.1422 (  1286 PWs)   bands (ev):

   -16.5452 -16.5324 -16.4856 -16.4169 -16.3874 -16.3419 -16.2816 -16.2534
   -16.2045 -16.1900  -2.8219   2.0165   5.4403   6.1921

          k =-0.2133-0.4976 0.4976 (  1277 PWs)   bands (ev):

   -16.5526 -16.5371 -16.4687 -16.4043 -16.3907 -16.3352 -16.2967 -16.2720
   -16.1969 -16.1818  -2.1639   0.9303   4.9011   6.2222

          k =-0.1422-0.4265 0.4265 (  1267 PWs)   bands (ev):

   -16.5537 -16.5402 -16.4596 -16.4045 -16.3953 -16.3170 -16.3091 -16.2827
   -16.1924 -16.1811  -2.0373   0.7521   4.6197   6.4659

          k =-0.0711-0.3554 0.3554 (  1283 PWs)   bands (ev):

   -16.5483 -16.5409 -16.4627 -16.4218 -16.3959 -16.3124 -16.2942 -16.2817
   -16.1916 -16.1885  -2.6168   1.6447   4.6648   6.8870

          k = 0.0000-0.2843 0.2843 (  1289 PWs)   bands (ev):

   -16.5378 -16.5372 -16.4781 -16.4339 -16.4092 -16.3030 -16.2839 -16.2613
   -16.2031 -16.1950  -3.2823   2.8341   5.1913   7.3953

          k = 0.4265-0.0000 0.0000 (  1283 PWs)   bands (ev):

   -16.5311 -16.5311 -16.5075 -16.4173 -16.3734 -16.3621 -16.2779 -16.2255
   -16.2072 -16.2072  -3.0828   2.7239   5.9575   5.9575

          k = 0.4976 0.0711-0.0711 (  1282 PWs)   bands (ev):

   -16.5420 -16.5359 -16.4900 -16.4013 -16.3807 -16.3552 -16.2940 -16.2457
   -16.1990 -16.1928  -2.5025   1.7362   5.3205   5.7280

          k =-0.1422-0.5687 0.5687 (  1275 PWs)   bands (ev):

   -16.5540 -16.5400 -16.4665 -16.3855 -16.3840 -16.3496 -16.3116 -16.2708
   -16.1925 -16.1793  -1.8097   0.7793   4.5096   5.7247

          k =-0.0711-0.4976 0.4976 (  1272 PWs)   bands (ev):

   -16.5604 -16.5428 -16.4524 -16.3735 -16.3712 -16.3594 -16.3270 -16.2851
   -16.1887 -16.1729  -1.4557   0.3646   3.9811   5.9469

          k =-0.0000-0.4265 0.4265 (  1280 PWs)   bands (ev):

   -16.5584 -16.5434 -16.4512 -16.3970 -16.3771 -16.3291 -16.3275 -16.2869
   -16.1883 -16.1760  -1.9458   0.9318   3.9633   6.3631

          k = 0.5687-0.0000 0.0000 (  1290 PWs)   bands (ev):

   -16.5392 -16.5392 -16.4859 -16.4098 -16.3835 -16.3288 -16.3103 -16.2506
   -16.1935 -16.1935  -1.9732   0.9845   5.4462   5.4462

          k =-0.0711-0.6398 0.6398 (  1279 PWs)   bands (ev):

   -16.5474 -16.5417 -16.4639 -16.4243 -16.3658 -16.3285 -16.3135 -16.2736
   -16.1894 -16.1844  -1.2839   0.1621   4.8979   5.3893

          k = 0.0000-0.5687 0.5687 (  1272 PWs)   bands (ev):

   -16.5573 -16.5430 -16.4505 -16.4067 -16.3547 -16.3420 -16.3280 -16.2872
   -16.1877 -16.1749  -0.8829  -0.2175   4.1832   5.5641

          k =-0.7109 0.0000-0.0000 (  1298 PWs)   bands (ev):

   -16.5422 -16.5422 -16.4524 -16.4524 -16.3466 -16.3466 -16.2864 -16.2864
   -16.1883 -16.1883  -0.6011  -0.6011   5.2726   5.2726

          k = 0.2843 0.1422 0.0000 (  1288 PWs)   bands (ev):

   -16.5310 -16.5254 -16.4988 -16.4409 -16.4170 -16.3084 -16.2626 -16.2407
   -16.2184 -16.2030  -3.7402   3.9365   6.1388   7.2297

          k = 0.3554 0.2133-0.0711 (  1283 PWs)   bands (ev):

   -16.5400 -16.5343 -16.4834 -16.4289 -16.4025 -16.3203 -16.2741 -16.2592
   -16.2041 -16.1947  -3.1656   2.5696   5.4469   6.8428

          k =-0.2843-0.4265 0.5687 (  1279 PWs)   bands (ev):

   -16.5478 -16.5382 -16.4692 -16.4174 -16.3976 -16.3209 -16.2860 -16.2768
   -16.1964 -16.1873  -2.4820   1.2966   5.1223   6.4944

          k =-0.2133-0.3554 0.4976 (  1272 PWs)   bands (ev):

   -16.5507 -16.5392 -16.4635 -16.4096 -16.4003 -16.3148 -16.2983 -16.2812
   -16.1944 -16.1841  -2.0861   0.6899   5.0286   6.3612

          k = 0.4265 0.1422 0.0000 (  1282 PWs)   bands (ev):

   -16.5386 -16.5369 -16.4901 -16.4172 -16.3788 -16.3532 -16.2801 -16.2473
   -16.2008 -16.1964  -2.9453   2.4139   5.3754   6.1034

          k =-0.2133-0.4976 0.6398 (  1277 PWs)   bands (ev):

   -16.5502 -16.5418 -16.4682 -16.4029 -16.3704 -16.3592 -16.2967 -16.2702
   -16.1923 -16.1841  -2.2747   1.3532   4.7238   5.7870

          k =-0.1422-0.4265 0.5687 (  1271 PWs)   bands (ev):

   -16.5574 -16.5443 -16.4519 -16.3917 -16.3729 -16.3520 -16.3137 -16.2858
   -16.1884 -16.1761  -1.6984   0.5778   4.2991   5.7308

          k =-0.0711-0.3554 0.4976 (  1272 PWs)   bands (ev):

   -16.5570 -16.5450 -16.4496 -16.3988 -16.3752 -16.3426 -16.3134 -16.2885
   -16.1874 -16.1772  -1.8794   0.8122   4.1792   5.9663

          k = 0.0000-0.2843 0.4265 (  1280 PWs)   bands (ev):

   -16.5489 -16.5432 -16.4625 -16.4165 -16.3842 -16.3354 -16.2872 -16.2825
   -16.1897 -16.1874  -2.5488   1.7127   4.5097   6.4059

          k =-0.1422-0.5687 0.7109 (  1274 PWs)   bands (ev):

   -16.5452 -16.5452 -16.4701 -16.3982 -16.3845 -16.3376 -16.3114 -16.2663
   -16.1878 -16.1876  -1.8709   0.8918   4.9527   5.3019

          k =-0.0711-0.4976 0.6398 (  1274 PWs)   bands (ev):

   -16.5562 -16.5472 -16.4458 -16.3993 -16.3688 -16.3344 -16.3298 -16.2902
   -16.1846 -16.1763  -1.1941   0.1400   4.3118   5.2068

          k =-0.0000-0.4265 0.5687 (  1273 PWs)   bands (ev):

   -16.5608 -16.5474 -16.4407 -16.3733 -16.3709 -16.3521 -16.3369 -16.2942
   -16.1843 -16.1721  -1.2311   0.1959   3.9244   5.4771

          k =-0.7109 0.1422 0.0000 (  1280 PWs)   bands (ev):

   -16.5481 -16.5481 -16.4386 -16.4386 -16.3477 -16.3477 -16.2983 -16.2983
   -16.1832 -16.1832  -0.5667  -0.5667   4.9185   4.9185

          k =-0.1422-0.4265 0.7109 (  1277 PWs)   bands (ev):

   -16.5557 -16.5502 -16.4429 -16.3870 -16.3756 -16.3511 -16.3185 -16.2926
   -16.1823 -16.1776  -1.5943   0.6079   4.2413   5.2366

          k =-0.0711-0.3554 0.6398 (  1270 PWs)   bands (ev):

   -16.5592 -16.5519 -16.4299 -16.3830 -16.3713 -16.3477 -16.3331 -16.3025
   -16.1803 -16.1734  -1.1321   0.1179   4.1008   4.9932

          k =-0.7109 0.2843 0.0000 (  1274 PWs)   bands (ev):

   -16.5557 -16.5557 -16.4130 -16.4130 -16.3529 -16.3529 -16.3179 -16.3179
   -16.1764 -16.1764  -0.5083  -0.5083   4.4709   4.4709

     highest occupied level (ev):     8.4163

!    total energy              =    -426.17072696 Ry
     estimated scf accuracy    <          1.5E-10 Ry

     The total energy is the sum of the following terms:
     one-electron contribution =    -276.93807754 Ry
     hartree contribution      =     164.15895613 Ry
     xc contribution           =    -114.56569318 Ry
     ewald contribution        =    -198.82591237 Ry

     convergence has been achieved in   8 iterations

     Forces acting on atoms (cartesian axes, Ry/au):

     atom    1 type  1   force =     0.00000000    0.00000000    0.00000000
     atom    2 type  1   force =     0.00000000    0.00000000    0.00000000

     Total force =     0.000000     Total SCF correction =     0.000000


     Computing stress (Cartesian axis) and pressure

          total   stress  (Ry/bohr**3)                   (kbar)     P=        0.73
   0.00000495   0.00000000  -0.00000000            0.73        0.00       -0.00
   0.00000000   0.00000495   0.00000000            0.00        0.73        0.00
  -0.00000000  -0.00000000   0.00000495           -0.00       -0.00        0.73

     Message from routine punch:
     Nothing written, as per user request (disk_io='none')

     init_run     :      1.51s CPU      1.67s WALL (       2 calls)
     electrons    :     27.79s CPU     28.26s WALL (       5 calls)
     update_pot   :      0.00s CPU      0.01s WALL (       3 calls)
     forces       :      0.47s CPU      0.47s WALL (       5 calls)
     stress       :      3.02s CPU      3.03s WALL (       5 calls)

     Called by init_run:
     wfcinit      :      0.96s CPU      1.01s WALL (       2 calls)
     potinit      :      0.02s CPU      0.03s WALL (       2 calls)
     hinit0       :      0.47s CPU      0.51s WALL (       2 calls)

     Called by electrons:
     c_bands      :     22.98s CPU     23.36s WALL (      26 calls)
     sum_band     :      4.21s CPU      4.29s WALL (      26 calls)
     v_of_rho     :      0.03s CPU      0.04s WALL (      27 calls)
     newd         :      0.66s CPU      0.70s WALL (      27 calls)
     mix_rho      :      0.01s CPU      0.01s WALL (      26 calls)

     Called by c_bands:
     init_us_2    :      0.89s CPU      0.91s WALL (    3008 calls)
     cegterg      :     20.81s CPU     21.13s WALL (    1222 calls)

     Called by *egterg:
     cdiaghg      :      0.72s CPU      0.75s WALL (    4248 calls)
     h_psi        :     18.12s CPU     18.42s WALL (    4671 calls)
     s_psi        :      0.53s CPU      0.54s WALL (    4671 calls)
     g_psi        :      0.16s CPU      0.16s WALL (    3355 calls)

     Called by h_psi:
     h_psi:calbec :      0.62s CPU      0.63s WALL (    4671 calls)
     vloc_psi     :     16.84s CPU     17.11s WALL (    4671 calls)
     add_vuspsi   :      0.54s CPU      0.55s WALL (    4671 calls)

     General routines
     calbec       :      1.36s CPU      1.38s WALL (    9888 calls)
     fft          :      0.16s CPU      0.18s WALL (     155 calls)
     ffts         :      0.00s CPU      0.00s WALL (      26 calls)
     fftw         :     16.85s CPU     17.13s WALL (  113966 calls)

     Parallel routines

     PWSCF        :     32.95s CPU     33.68s WALL


   This run was terminated on:  23:11:55   8Oct2025            

=------------------------------------------------------------------------------=
   JOB DONE.
=------------------------------------------------------------------------------=
