
     Program PWSCF v.7.4.1 starts on  9Oct2025 at 13: 1:54 

     This program is part of the open-source Quantum ESPRESSO suite
     for quantum simulation of materials; please cite
         "P. Giannozzi et al., J. Phys.:Condens. Matter 21 395502 (2009);
         "P. Giannozzi et al., J. Phys.:Condens. Matter 29 465901 (2017);
         "P. Giannozzi et al., J. Chem. Phys. 152 154105 (2020);
          URL http://www.quantum-espresso.org", 
     in publications or presentations arising from this work. More details at
     http://www.quantum-espresso.org/quote

     Parallel version (MPI), running on     1 processors

     MPI processes distributed on     1 nodes
     230 MiB available memory on the printing compute node when the environment starts

     Waiting for input...
     Reading input from standard input
Warning: card &CELL ignored
Warning: card / ignored

     Current dimensions of program PWSCF are:
     Max number of different atomic species (ntypx) = 10
     Max number of k-points (npk) =  40000
     Max angular momentum in pseudopotentials (lmaxx) =  4
     Message from routine setup:
     using ibrav=0 with symmetry is DISCOURAGED, use correct ibrav instead

     Subspace diagonalization in iterative solution of the eigenvalue problem:
     a serial algorithm will be used


     G-vector sticks info
     --------------------
     sticks:   dense  smooth     PW     G-vecs:    dense   smooth      PW
     Sum         313     313    109                 3719     3719     725

     Using Slab Decomposition



     bravais-lattice index     =            0
     lattice parameter (alat)  =       7.5872  a.u.
     unit-cell volume          =     308.8323 (a.u.)^3
     number of atoms/cell      =            2
     number of atomic types    =            1
     number of electrons       =        28.00
     number of Kohn-Sham states=           14
     kinetic-energy cutoff     =      20.0000  Ry
     charge density cutoff     =      80.0000  Ry
     scf convergence threshold =      1.0E-07
     mixing beta               =       0.5000
     number of iterations used =            8  plain     mixing
     Exchange-correlation=  SLA  PZ   NOGX NOGC
                           (   1   1   0   0   0   0   0)

     celldm(1)=   7.587160  celldm(2)=   0.000000  celldm(3)=   0.000000
     celldm(4)=   0.000000  celldm(5)=   0.000000  celldm(6)=   0.000000

     crystal axes: (cart. coord. in units of alat)
               a(1) = (   0.000000   0.707107   0.707107 )  
               a(2) = (   0.707107   0.000000   0.707107 )  
               a(3) = (   0.707107   0.707107   0.000000 )  

     reciprocal axes: (cart. coord. in units 2 pi/alat)
               b(1) = ( -0.707107  0.707107  0.707107 )  
               b(2) = (  0.707107 -0.707107  0.707107 )  
               b(3) = (  0.707107  0.707107 -0.707107 )  


     PseudoPot. # 1 for Ge read from file:
     /home/bond/Software/QE/qe-7.4.1/pseudo/ge_lda_v1.4.uspp.F.UPF
     MD5 check sum: bf9d52b59cc8a669818bb2b52e0c2ba0
     Pseudo is Ultrasoft + core correction, Zval = 14.0
     Generated by new atomic code, or converted to UPF format
     Using radial grid of  873 points,  6 beta functions with: 
                l(1) =   0
                l(2) =   0
                l(3) =   1
                l(4) =   1
                l(5) =   2
                l(6) =   2
     Q(r) pseudized with  8 coefficients,  rinner =    1.400   1.400   1.400
                                                       1.400   1.400

     atomic species   valence    mass     pseudopotential
     Ge               14.00    72.63000     Ge( 1.00)

     48 Sym. Ops., with inversion, found (24 have fractional translation)



   Cartesian axes

     site n.     atom                  positions (alat units)
         1        Ge     tau(   1) = (   0.0000000   0.0000000   0.0000000  )
         2        Ge     tau(   2) = (   0.3535534   0.3535534   0.3535534  )

     number of k points=     8
                       cart. coord. in units 2pi/alat
        k(    1) = (   0.0000000   0.0000000   0.0000000), wk =   0.0312500
        k(    2) = (   0.1767767   0.1767767  -0.1767767), wk =   0.2500000
        k(    3) = (  -0.3535534  -0.3535534   0.3535534), wk =   0.1250000
        k(    4) = (   0.3535534   0.0000000   0.0000000), wk =   0.1875000
        k(    5) = (  -0.1767767  -0.5303301   0.5303301), wk =   0.7500000
        k(    6) = (   0.0000000  -0.3535534   0.3535534), wk =   0.3750000
        k(    7) = (  -0.7071068   0.0000000   0.0000000), wk =   0.0937500
        k(    8) = (  -0.7071068   0.3535534   0.0000000), wk =   0.1875000

     Dense  grid:     3719 G-vectors     FFT dimensions: (  24,  24,  24)

     Estimated max dynamical RAM per process >      15.77 MB

     Check: negative core charge=   -0.002073

     Initial potential from superposition of free atoms

     starting charge      27.9986, renormalised to      28.0000
     Starting wfcs are   18 randomized atomic wfcs

     total cpu time spent up to now is        0.5 secs

     Self-consistent Calculation

     iteration #  1     ecut=    20.00 Ry     beta= 0.50
     Davidson diagonalization with overlap
     ethr =  1.00E-02,  avg # of iterations =  1.8

     Threshold (ethr) on eigenvalues was too large:
     Diagonalizing with lowered threshold

     Davidson diagonalization with overlap
     ethr =  6.81E-04,  avg # of iterations =  1.0

     total cpu time spent up to now is        0.6 secs

     total energy              =    -424.70332351 Ry
     estimated scf accuracy    <       0.19889579 Ry

     iteration #  2     ecut=    20.00 Ry     beta= 0.50
     Davidson diagonalization with overlap
     ethr =  7.10E-04,  avg # of iterations =  2.0

     total cpu time spent up to now is        0.7 secs

     total energy              =    -424.72123483 Ry
     estimated scf accuracy    <       0.01431929 Ry

     iteration #  3     ecut=    20.00 Ry     beta= 0.50
     Davidson diagonalization with overlap
     ethr =  5.11E-05,  avg # of iterations =  2.0

     total cpu time spent up to now is        0.8 secs

     total energy              =    -424.72248898 Ry
     estimated scf accuracy    <       0.00060696 Ry

     iteration #  4     ecut=    20.00 Ry     beta= 0.50
     Davidson diagonalization with overlap
     ethr =  2.17E-06,  avg # of iterations =  2.4

     total cpu time spent up to now is        0.9 secs

     total energy              =    -424.72260738 Ry
     estimated scf accuracy    <       0.00000808 Ry

     iteration #  5     ecut=    20.00 Ry     beta= 0.50
     Davidson diagonalization with overlap
     ethr =  2.89E-08,  avg # of iterations =  4.9

     total cpu time spent up to now is        1.0 secs

     total energy              =    -424.72260328 Ry
     estimated scf accuracy    <       0.00000048 Ry

     iteration #  6     ecut=    20.00 Ry     beta= 0.50
     Davidson diagonalization with overlap
     ethr =  1.72E-09,  avg # of iterations =  3.8

     total cpu time spent up to now is        1.1 secs

     End of self-consistent calculation

          k = 0.0000 0.0000 0.0000 (   459 PWs)   bands (ev):

   -18.4200 -18.4200 -18.4200 -18.1413 -18.1413 -18.0062 -18.0062 -17.9079
   -17.9079 -17.9079  -4.6695   7.6073   8.0349   8.0349

          k = 0.1768 0.1768-0.1768 (   483 PWs)   bands (ev):

   -18.6644 -18.6644 -18.4973 -18.4973 -18.4722 -18.3226 -18.2856 -18.2856
   -18.1967 -18.1967  -3.9438   3.2547   7.1788   7.1788

          k =-0.3536-0.3536 0.3536 (   464 PWs)   bands (ev):

   -18.5280 -18.5280 -18.4506 -18.2754 -18.2754 -18.2484 -18.0990 -18.0990
   -17.9035 -17.9035  -2.6405   0.4626   6.6711   6.6711

          k = 0.3536 0.0000 0.0000 (   480 PWs)   bands (ev):

   -18.7406 -18.5184 -18.4807 -18.4252 -18.4252 -18.4125 -18.2825 -18.1948
   -18.1746 -18.1746  -3.6801   3.1945   6.0596   6.0596

          k =-0.1768-0.5303 0.5303 (   464 PWs)   bands (ev):

   -18.5716 -18.4570 -18.4108 -18.2951 -18.2691 -18.2245 -18.1200 -18.0820
   -17.9658 -17.9524  -2.2303   0.6151   4.3868   5.7036

          k = 0.0000-0.3536 0.3536 (   463 PWs)   bands (ev):

   -18.4383 -18.3739 -18.3377 -18.3133 -18.2231 -18.1795 -18.1589 -18.1341
   -18.0335 -17.9499  -2.8285   1.4501   4.2586   6.5755

          k =-0.7071 0.0000 0.0000 (   468 PWs)   bands (ev):

   -18.6098 -18.6098 -18.3226 -18.3226 -18.2941 -18.2941 -18.2580 -18.2580
   -17.9989 -17.9989  -0.8702  -0.8702   5.0494   5.0494

          k =-0.7071 0.3536 0.0000 (   464 PWs)   bands (ev):

   -18.5533 -18.5533 -18.2567 -18.2567 -18.2541 -18.2541 -18.2179 -18.2179
   -17.9002 -17.9002  -0.7813  -0.7813   4.2311   4.2311

     highest occupied level (ev):     8.0349

!    total energy              =    -424.72260346 Ry
     estimated scf accuracy    <          1.5E-09 Ry

     The total energy is the sum of the following terms:
     one-electron contribution =    -275.88427871 Ry
     hartree contribution      =     161.64127042 Ry
     xc contribution           =    -113.68076801 Ry
     ewald contribution        =    -196.79882717 Ry

     convergence has been achieved in   6 iterations

     Forces acting on atoms (cartesian axes, Ry/au):

     atom    1 type  1   force =     0.00000000   -0.00000000   -0.00000000
     atom    2 type  1   force =    -0.00000000    0.00000000    0.00000000

     Total force =     0.000000     Total SCF correction =     0.000000


     Computing stress (Cartesian axis) and pressure

          total   stress  (Ry/bohr**3)                   (kbar)     P=    -3101.22
  -0.02108169   0.00000000   0.00000000        -3101.22        0.00        0.00
   0.00000000  -0.02108169   0.00000000            0.00    -3101.22        0.00
   0.00000000   0.00000000  -0.02108169            0.00        0.00    -3101.22

     Message from routine punch:
     Nothing written, as per user request (disk_io='none')

     init_run     :      0.40s CPU      0.40s WALL (       1 calls)
     electrons    :      0.62s CPU      0.63s WALL (       1 calls)
     forces       :      0.02s CPU      0.02s WALL (       1 calls)
     stress       :      0.13s CPU      0.13s WALL (       1 calls)

     Called by init_run:
     wfcinit      :      0.13s CPU      0.13s WALL (       1 calls)
     potinit      :      0.01s CPU      0.01s WALL (       1 calls)
     hinit0       :      0.25s CPU      0.25s WALL (       1 calls)

     Called by electrons:
     c_bands      :      0.42s CPU      0.42s WALL (       7 calls)
     sum_band     :      0.14s CPU      0.14s WALL (       7 calls)
     v_of_rho     :      0.00s CPU      0.00s WALL (       7 calls)
     newd         :      0.06s CPU      0.07s WALL (       7 calls)
     mix_rho      :      0.00s CPU      0.00s WALL (       7 calls)

     Called by c_bands:
     init_us_2    :      0.02s CPU      0.02s WALL (     136 calls)
     cegterg      :      0.38s CPU      0.38s WALL (      56 calls)

     Called by *egterg:
     cdiaghg      :      0.03s CPU      0.03s WALL (     190 calls)
     h_psi        :      0.43s CPU      0.44s WALL (     206 calls)
     s_psi        :      0.01s CPU      0.01s WALL (     206 calls)
     g_psi        :      0.00s CPU      0.00s WALL (     142 calls)

     Called by h_psi:
     h_psi:calbec :      0.01s CPU      0.01s WALL (     206 calls)
     vloc_psi     :      0.41s CPU      0.41s WALL (     206 calls)
     add_vuspsi   :      0.01s CPU      0.01s WALL (     206 calls)

     General routines
     calbec       :      0.02s CPU      0.02s WALL (     398 calls)
     fft          :      0.15s CPU      0.15s WALL (      37 calls)
     ffts         :      0.00s CPU      0.00s WALL (       7 calls)
     fftw         :      0.41s CPU      0.42s WALL (    5092 calls)

     Parallel routines

     PWSCF        :      1.24s CPU      1.26s WALL


   This run was terminated on:  13: 1:55   9Oct2025            

=------------------------------------------------------------------------------=
   JOB DONE.
=------------------------------------------------------------------------------=
