LAMMPS (22 Jul 2025 - Update 1)
Reading data file ...
  orthogonal box = (0 0 0) to (12.367569 8.7451919 16.745192)
  1 by 1 by 1 MPI processor grid
  reading atoms ...
  63 atoms
  read_data CPU = 0.001 seconds
WARNING: No fixes with time integration, atoms won't move
For more information see https://docs.lammps.org/err0028 (../verlet.cpp:60)
Generated 0 of 0 mixed pair_coeff terms from geometric mixing rule
Neighbor list info ...
  update: every = 1 steps, delay = 0 steps, check = yes
  max neighbors/atom: 2000, page size: 100000
  master list distance cutoff = 6.5
  ghost atom cutoff = 6.5
  binsize = 3.25, bins = 4 3 6
  1 neighbor lists, perpetual/occasional/extra = 1 0 0
  (1) pair lj/cut, perpetual
      attributes: half, newton on
      pair build: half/bin/atomonly/newton
      stencil: half/bin/3d
      bin: standard
Setting up Verlet run ...
  Unit style    : metal
  Current step  : 0
  Time step     : 0.001
Per MPI rank memory allocation (min/avg/max) = 3.054 | 3.054 | 3.054 Mbytes
   Step         PotEng           Lx             Ly             Lz           Press           Pxx            Pyy            Pzz      
         0  -141.40006      12.367569      8.7451919      16.745192      1428.4897     -4284.9515      6427.7825      2142.638     
Loop time of 2.125e-06 on 1 procs for 0 steps with 63 atoms

141.2% CPU use with 1 MPI tasks x no OpenMP threads

MPI task timing breakdown:
Section |  min time  |  avg time  |  max time  |%varavg| %total
---------------------------------------------------------------
Pair    | 0          | 0          | 0          |   0.0 |  0.00
Neigh   | 0          | 0          | 0          |   0.0 |  0.00
Comm    | 0          | 0          | 0          |   0.0 |  0.00
Output  | 0          | 0          | 0          |   0.0 |  0.00
Modify  | 0          | 0          | 0          |   0.0 |  0.00
Other   |            | 2.125e-06  |            |       |100.00

Nlocal:             63 ave          63 max          63 min
Histogram: 1 0 0 0 0 0 0 0 0 0
Nghost:            276 ave         276 max         276 min
Histogram: 1 0 0 0 0 0 0 0 0 0
Neighs:           1323 ave        1323 max        1323 min
Histogram: 1 0 0 0 0 0 0 0 0 0

Total # of neighbors = 1323
Ave neighs/atom = 21
Neighbor list builds = 0
Dangerous builds = 0
Generated 0 of 0 mixed pair_coeff terms from geometric mixing rule
Setting up cg style minimization ...
  Unit style    : metal
  Current step  : 0
WARNING: Energy due to 3 extra global DOFs will be included in minimizer energies
 (../min.cpp:222)
Per MPI rank memory allocation (min/avg/max) = 4.179 | 4.179 | 4.179 Mbytes
   Step         PotEng           Lx             Ly             Lz           Press           Pxx            Pyy            Pzz      
         0  -141.40006      12.367569      8.7451919      16.745192      1428.4897     -4284.9515      6427.7825      2142.638     
        10  -141.41261      12.365493      8.743724       16.745192      3.3905513     -5979.5253      5982.1762      7.5207649    
Loop time of 0.00066217 on 1 procs for 10 steps with 63 atoms

72.9% CPU use with 1 MPI tasks x no OpenMP threads

Minimization stats:
  Stopping criterion = energy tolerance
  Energy initial, next-to-last, final = 
     -141.400057257668  -141.412610532088   -141.41261054227
  Force two-norm initial, final = 1.8001579 0.0040710258
  Force max component initial, final = 1.2111317 0.0014980355
  Final line search alpha, max atom move = 0.25632826 0.00038398883
  Iterations, force evaluations = 10 20

MPI task timing breakdown:
Section |  min time  |  avg time  |  max time  |%varavg| %total
---------------------------------------------------------------
Pair    | 0.00039876 | 0.00039876 | 0.00039876 |   0.0 | 60.22
Neigh   | 0          | 0          | 0          |   0.0 |  0.00
Comm    | 3.0783e-05 | 3.0783e-05 | 3.0783e-05 |   0.0 |  4.65
Output  | 0          | 0          | 0          |   0.0 |  0.00
Modify  | 0          | 0          | 0          |   0.0 |  0.00
Other   |            | 0.0002326  |            |       | 35.13

Nlocal:             63 ave          63 max          63 min
Histogram: 1 0 0 0 0 0 0 0 0 0
Nghost:            276 ave         276 max         276 min
Histogram: 1 0 0 0 0 0 0 0 0 0
Neighs:           1323 ave        1323 max        1323 min
Histogram: 1 0 0 0 0 0 0 0 0 0

Total # of neighbors = 1323
Ave neighs/atom = 21
Neighbor list builds = 0
Dangerous builds = 0
Total energy (eV) = -141.41261054227
Number of atoms = 63
Lattice constant (Angstoms) = 12.3654929962192
Total wall time: 0:00:00
