
     Program PWSCF v.7.4.1 starts on 21Oct2025 at  1:39:53 

     This program is part of the open-source Quantum ESPRESSO suite
     for quantum simulation of materials; please cite
         "P. Giannozzi et al., J. Phys.:Condens. Matter 21 395502 (2009);
         "P. Giannozzi et al., J. Phys.:Condens. Matter 29 465901 (2017);
         "P. Giannozzi et al., J. Chem. Phys. 152 154105 (2020);
          URL http://www.quantum-espresso.org", 
     in publications or presentations arising from this work. More details at
     http://www.quantum-espresso.org/quote

     Parallel version (MPI), running on     2 processors

     MPI processes distributed on     1 nodes
     286 MiB available memory on the printing compute node when the environment starts

     Waiting for input...
     Reading input from standard input
Warning: card &CELL ignored
Warning: card / ignored

     Current dimensions of program PWSCF are:
     Max number of different atomic species (ntypx) = 10
     Max number of k-points (npk) =  40000
     Max angular momentum in pseudopotentials (lmaxx) =  4
     file O.pz-rrkjus.UPF: wavefunction(s)  2S renormalized
     Message from routine setup:
     using ibrav=0 with symmetry is DISCOURAGED, use correct ibrav instead

     R & G space division:  proc/nbgrp/npool/nimage =       2
     Subspace diagonalization in iterative solution of the eigenvalue problem:
     a serial algorithm will be used


     Parallelization info
     --------------------
     sticks:   dense  smooth     PW     G-vecs:    dense   smooth      PW
     Min         546     276     84                13600     4813     787
     Max         547     277     85                13601     4814     788
     Sum        1093     553    169                27201     9627    1575

     Using Slab Decomposition



     bravais-lattice index     =            0
     lattice parameter (alat)  =       7.5589  a.u.
     unit-cell volume          =     431.8934 (a.u.)^3
     number of atoms/cell      =            5
     number of atomic types    =            3
     number of electrons       =        44.00
     number of Kohn-Sham states=           22
     kinetic-energy cutoff     =      30.0000  Ry
     charge density cutoff     =     240.0000  Ry
     scf convergence threshold =      1.0E-07
     mixing beta               =       0.7000
     number of iterations used =            8  plain     mixing
     Exchange-correlation= SLA  PZ   NOGX NOGC
                           (   1   1   0   0   0   0   0)

     celldm(1)=   7.558904  celldm(2)=   0.000000  celldm(3)=   0.000000
     celldm(4)=   0.000000  celldm(5)=   0.000000  celldm(6)=   0.000000

     crystal axes: (cart. coord. in units of alat)
               a(1) = (   1.000000   0.000000   0.000000 )  
               a(2) = (   0.000000   1.000000   0.000000 )  
               a(3) = (   0.000000   0.000000   1.000000 )  

     reciprocal axes: (cart. coord. in units 2 pi/alat)
               b(1) = (  1.000000  0.000000  0.000000 )  
               b(2) = (  0.000000  1.000000  0.000000 )  
               b(3) = (  0.000000  0.000000  1.000000 )  


     PseudoPot. # 1 for O  read from file:
     /home/bond/Software/QE/qe-7.4.1/pseudo/O.pz-rrkjus.UPF
     MD5 check sum: 24fb942a68ef5d262e498166c462ef4a
     Pseudo is Ultrasoft, Zval =  6.0
     Generated by new atomic code, or converted to UPF format
     Using radial grid of 1269 points,  4 beta functions with: 
                l(1) =   0
                l(2) =   0
                l(3) =   1
                l(4) =   1
     Q(r) pseudized with 0 coefficients 


     PseudoPot. # 2 for Pb read from file:
     /home/bond/Software/QE/qe-7.4.1/pseudo/Pb.pz-d-van.UPF
     MD5 check sum: 4e1e5920686a026ae26139ac417581ff
     Pseudo is Ultrasoft, Zval = 14.0
     Generated by new atomic code, or converted to UPF format
     Using radial grid of  899 points,  6 beta functions with: 
                l(1) =   0
                l(2) =   0
                l(3) =   1
                l(4) =   1
                l(5) =   2
                l(6) =   2
     Q(r) pseudized with  8 coefficients,  rinner =    1.000   1.000   1.000
                                                       1.000   1.000

     PseudoPot. # 3 for Ti read from file:
     /home/bond/Software/QE/qe-7.4.1/pseudo/Ti.pz-sp-van_ak.UPF
     MD5 check sum: 545d0e6e05332b8871a8093f427cb0ca
     Pseudo is Ultrasoft, Zval = 12.0
     Generated by new atomic code, or converted to UPF format
     Using radial grid of  851 points,  6 beta functions with: 
                l(1) =   0
                l(2) =   0
                l(3) =   1
                l(4) =   1
                l(5) =   2
                l(6) =   2
     Q(r) pseudized with  8 coefficients,  rinner =    1.000   1.000   1.000
                                                       1.000   1.000

     atomic species   valence    mass     pseudopotential
     O                 6.00    15.99900     O ( 1.00)
     Pb               14.00   207.20000     Pb( 1.00)
     Ti               12.00    47.86700     Ti( 1.00)

     48 Sym. Ops., with inversion, found



   Cartesian axes

     site n.     atom                  positions (alat units)
         1        Pb     tau(   1) = (   0.0000000   0.0000000   0.0000000  )
         2        Ti     tau(   2) = (   0.5000000   0.5000000   0.5000000  )
         3        O      tau(   3) = (   0.0000000   0.5000000   0.5000000  )
         4        O      tau(   4) = (   0.5000000   0.0000000   0.5000000  )
         5        O      tau(   5) = (   0.5000000   0.5000000   0.0000000  )

     number of k points=     4
                       cart. coord. in units 2pi/alat
        k(    1) = (   0.1250000   0.1250000   0.1250000), wk =   0.2500000
        k(    2) = (   0.1250000   0.1250000   0.3750000), wk =   0.7500000
        k(    3) = (   0.1250000   0.3750000   0.3750000), wk =   0.7500000
        k(    4) = (   0.3750000   0.3750000   0.3750000), wk =   0.2500000

     Dense  grid:    27201 G-vectors     FFT dimensions: (  40,  40,  40)

     Smooth grid:     9627 G-vectors     FFT dimensions: (  27,  27,  27)

     Estimated max dynamical RAM per process >      55.61 MB

     Estimated total dynamical RAM >     111.23 MB

     Initial potential from superposition of free atoms

     starting charge      42.9982, renormalised to      44.0000
     Starting wfcs are   31 randomized atomic wfcs

     total cpu time spent up to now is        1.6 secs

     Self-consistent Calculation

     iteration #  1     ecut=    30.00 Ry     beta= 0.70
     Davidson diagonalization with overlap
     ethr =  1.00E-02,  avg # of iterations =  2.0

     total cpu time spent up to now is        2.0 secs

     total energy              =    -332.55180972 Ry
     estimated scf accuracy    <       1.14758519 Ry

     iteration #  2     ecut=    30.00 Ry     beta= 0.70
     Davidson diagonalization with overlap
     ethr =  2.61E-03,  avg # of iterations =  8.2

     total cpu time spent up to now is        2.6 secs

     total energy              =    -331.71745219 Ry
     estimated scf accuracy    <       8.85484430 Ry

     iteration #  3     ecut=    30.00 Ry     beta= 0.70
     Davidson diagonalization with overlap
     ethr =  2.61E-03,  avg # of iterations =  6.5

     total cpu time spent up to now is        3.1 secs

     total energy              =    -333.13250474 Ry
     estimated scf accuracy    <       0.36194713 Ry

     iteration #  4     ecut=    30.00 Ry     beta= 0.70
     Davidson diagonalization with overlap
     ethr =  8.23E-04,  avg # of iterations =  2.8

     total cpu time spent up to now is        3.5 secs

     total energy              =    -333.12958324 Ry
     estimated scf accuracy    <       0.12022704 Ry

     iteration #  5     ecut=    30.00 Ry     beta= 0.70
     Davidson diagonalization with overlap
     ethr =  2.73E-04,  avg # of iterations =  4.5

     total cpu time spent up to now is        4.0 secs

     total energy              =    -333.16154919 Ry
     estimated scf accuracy    <       0.00230911 Ry

     iteration #  6     ecut=    30.00 Ry     beta= 0.70
     Davidson diagonalization with overlap
     ethr =  5.25E-06,  avg # of iterations =  5.5

     total cpu time spent up to now is        4.4 secs

     total energy              =    -333.16222651 Ry
     estimated scf accuracy    <       0.00302335 Ry

     iteration #  7     ecut=    30.00 Ry     beta= 0.70
     Davidson diagonalization with overlap
     ethr =  5.25E-06,  avg # of iterations =  4.2

     total cpu time spent up to now is        4.8 secs

     total energy              =    -333.16229987 Ry
     estimated scf accuracy    <       0.00054300 Ry

     iteration #  8     ecut=    30.00 Ry     beta= 0.70
     Davidson diagonalization with overlap
     ethr =  1.23E-06,  avg # of iterations =  5.0

     total cpu time spent up to now is        5.3 secs

     total energy              =    -333.16253641 Ry
     estimated scf accuracy    <       0.00008450 Ry

     iteration #  9     ecut=    30.00 Ry     beta= 0.70
     Davidson diagonalization with overlap
     ethr =  1.92E-07,  avg # of iterations =  2.8

     total cpu time spent up to now is        5.7 secs

     total energy              =    -333.16252195 Ry
     estimated scf accuracy    <       0.00007314 Ry

     iteration # 10     ecut=    30.00 Ry     beta= 0.70
     Davidson diagonalization with overlap
     ethr =  1.66E-07,  avg # of iterations =  2.5

     total cpu time spent up to now is        6.1 secs

     total energy              =    -333.16252265 Ry
     estimated scf accuracy    <       0.00002479 Ry

     iteration # 11     ecut=    30.00 Ry     beta= 0.70
     Davidson diagonalization with overlap
     ethr =  5.63E-08,  avg # of iterations =  4.8

     total cpu time spent up to now is        6.6 secs

     total energy              =    -333.16252655 Ry
     estimated scf accuracy    <       0.00000181 Ry

     iteration # 12     ecut=    30.00 Ry     beta= 0.70
     Davidson diagonalization with overlap
     ethr =  4.11E-09,  avg # of iterations =  4.5

     total cpu time spent up to now is        7.0 secs

     total energy              =    -333.16252690 Ry
     estimated scf accuracy    <       0.00000045 Ry

     iteration # 13     ecut=    30.00 Ry     beta= 0.70
     Davidson diagonalization with overlap
     ethr =  1.03E-09,  avg # of iterations =  1.2

     total cpu time spent up to now is        7.4 secs

     total energy              =    -333.16252686 Ry
     estimated scf accuracy    <       0.00000034 Ry

     iteration # 14     ecut=    30.00 Ry     beta= 0.70
     Davidson diagonalization with overlap
     ethr =  7.79E-10,  avg # of iterations =  3.0

     total cpu time spent up to now is        7.8 secs

     End of self-consistent calculation

          k = 0.1250 0.1250 0.1250 (  1216 PWs)   bands (ev):

   -46.5196 -23.0508 -23.0506 -23.0506  -7.3714  -6.4823  -6.4823  -5.6477
    -5.6477  -5.6376  -5.4633  -5.4633   3.1666   6.1308   6.1308   6.6292
     7.8672   7.8672   8.5782   8.5782   8.6032   8.6267

          k = 0.1250 0.1250 0.3750 (  1193 PWs)   bands (ev):

   -46.5187 -23.0857 -23.0486 -23.0486  -7.0355  -6.3743  -6.3728  -5.6902
    -5.6435  -5.6279  -5.5528  -5.4523   2.5985   5.6408   6.2571   6.5875
     7.1161   7.5048   7.9931   8.6368   8.7277   9.2015

          k = 0.1250 0.3750 0.3750 (  1202 PWs)   bands (ev):

   -46.5180 -23.0845 -23.0844 -23.0475  -6.8740  -6.3122  -6.2612  -5.6713
    -5.6378  -5.5785  -5.5060  -5.3651   2.3580   5.5609   5.7223   6.1030
     6.3856   7.2616   8.0319   8.1931   8.4874   9.3193

          k = 0.3750 0.3750 0.3750 (  1190 PWs)   bands (ev):

   -46.5172 -23.0828 -23.0826 -23.0826  -6.5877  -6.4535  -6.4535  -5.6111
    -5.6111  -5.3297  -5.2651  -5.2651   2.9246   5.0301   5.0301   5.4124
     5.8703   5.8703   6.5373   9.2726   9.2726   9.3562

     highest occupied level (ev):     9.3562

!    total energy              =    -333.16252679 Ry
     estimated scf accuracy    <       0.00000010 Ry

     The total energy is the sum of the following terms:
     one-electron contribution =     -88.91250556 Ry
     hartree contribution      =      69.82923706 Ry
     xc contribution           =     -49.30305749 Ry
     ewald contribution        =    -264.77620080 Ry

     convergence has been achieved in  14 iterations

     Forces acting on atoms (cartesian axes, Ry/au):

     atom    1 type  2   force =     0.00000000    0.00000000    0.00000000
     atom    2 type  3   force =     0.00000000    0.00000000    0.00000000
     atom    3 type  1   force =     0.00000000    0.00000000    0.00000000
     atom    4 type  1   force =     0.00000000    0.00000000    0.00000000
     atom    5 type  1   force =     0.00000000    0.00000000    0.00000000

     Total force =     0.000000     Total SCF correction =     0.000000


     Computing stress (Cartesian axis) and pressure

          total   stress  (Ry/bohr**3)                   (kbar)     P=     -175.43
  -0.00119253   0.00000000   0.00000000         -175.43        0.00        0.00
   0.00000000  -0.00119253   0.00000000            0.00     -175.43        0.00
   0.00000000   0.00000000  -0.00119253            0.00        0.00     -175.43

     Message from routine punch:
     Nothing written, as per user request (disk_io='none')

     init_run     :      1.12s CPU      1.19s WALL (       1 calls)
     electrons    :      5.45s CPU      6.22s WALL (       1 calls)
     forces       :      0.16s CPU      0.19s WALL (       1 calls)
     stress       :      1.36s CPU      1.52s WALL (       1 calls)

     Called by init_run:
     wfcinit      :      0.08s CPU      0.09s WALL (       1 calls)
     potinit      :      0.11s CPU      0.11s WALL (       1 calls)
     hinit0       :      0.73s CPU      0.75s WALL (       1 calls)

     Called by electrons:
     c_bands      :      2.17s CPU      2.30s WALL (      14 calls)
     sum_band     :      1.83s CPU      2.18s WALL (      14 calls)
     v_of_rho     :      0.04s CPU      0.05s WALL (      15 calls)
     newd         :      1.48s CPU      1.79s WALL (      15 calls)
     mix_rho      :      0.03s CPU      0.03s WALL (      14 calls)

     Called by c_bands:
     init_us_2    :      0.05s CPU      0.06s WALL (     124 calls)
     cegterg      :      2.06s CPU      2.19s WALL (      56 calls)

     Called by *egterg:
     cdiaghg      :      0.18s CPU      0.19s WALL (     286 calls)
     h_psi        :      1.68s CPU      1.79s WALL (     290 calls)
     s_psi        :      0.04s CPU      0.05s WALL (     290 calls)
     g_psi        :      0.01s CPU      0.01s WALL (     230 calls)

     Called by h_psi:
     h_psi:calbec :      0.08s CPU      0.09s WALL (     290 calls)
     vloc_psi     :      1.53s CPU      1.64s WALL (     290 calls)
     add_vuspsi   :      0.05s CPU      0.06s WALL (     290 calls)

     General routines
     calbec       :      0.14s CPU      0.14s WALL (     414 calls)
     fft          :      0.28s CPU      0.29s WALL (      93 calls)
     ffts         :      0.07s CPU      0.07s WALL (      29 calls)
     fftw         :      1.56s CPU      1.67s WALL (    8104 calls)
     interpolate  :      0.08s CPU      0.08s WALL (      15 calls)

     Parallel routines

     PWSCF        :      8.51s CPU      9.55s WALL


   This run was terminated on:   1:40: 2  21Oct2025            

=------------------------------------------------------------------------------=
   JOB DONE.
=------------------------------------------------------------------------------=
