
     Program PWSCF v.7.4.1 starts on 20Oct2025 at 17:51:40 

     This program is part of the open-source Quantum ESPRESSO suite
     for quantum simulation of materials; please cite
         "P. Giannozzi et al., J. Phys.:Condens. Matter 21 395502 (2009);
         "P. Giannozzi et al., J. Phys.:Condens. Matter 29 465901 (2017);
         "P. Giannozzi et al., J. Chem. Phys. 152 154105 (2020);
          URL http://www.quantum-espresso.org", 
     in publications or presentations arising from this work. More details at
     http://www.quantum-espresso.org/quote

     Parallel version (MPI), running on     2 processors

     MPI processes distributed on     1 nodes
     278 MiB available memory on the printing compute node when the environment starts

     Waiting for input...
     Reading input from standard input

     Current dimensions of program PWSCF are:
     Max number of different atomic species (ntypx) = 10
     Max number of k-points (npk) =  40000
     Max angular momentum in pseudopotentials (lmaxx) =  4
     file Fe.pbe-nd-rrkjus.UPF: wavefunction(s)  4S renormalized
     Message from routine setup:
     using ibrav=0 with symmetry is DISCOURAGED, use correct ibrav instead

     R & G space division:  proc/nbgrp/npool/nimage =       2
     Subspace diagonalization in iterative solution of the eigenvalue problem:
     a serial algorithm will be used


     Parallelization info
     --------------------
     sticks:   dense  smooth     PW     G-vecs:    dense   smooth      PW
     Min         218      86     31                 2887      739     160
     Max         219      87     32                 2888      742     161
     Sum         437     173     63                 5775     1481     321

     Using Slab Decomposition



     bravais-lattice index     =            0
     lattice parameter (alat)  =       4.4187  a.u.
     unit-cell volume          =      66.4137 (a.u.)^3
     number of atoms/cell      =            1
     number of atomic types    =            1
     number of electrons       =         8.00
     number of Kohn-Sham states=            8
     kinetic-energy cutoff     =      30.0000  Ry
     charge density cutoff     =     300.0000  Ry
     scf convergence threshold =      1.0E-07
     mixing beta               =       0.5000
     number of iterations used =            8  plain     mixing
     energy convergence thresh.=      1.0E-04
     force convergence thresh. =      1.0E-03
     press convergence thresh. =      5.0E-01
     Exchange-correlation=  SLA  PW   PBE  PBE
                           (   1   4   3   4   0   0   0)
     nstep                     =           50


     celldm(1)=   4.418687  celldm(2)=   0.000000  celldm(3)=   0.000000
     celldm(4)=   0.000000  celldm(5)=   0.000000  celldm(6)=   0.000000

     crystal axes: (cart. coord. in units of alat)
               a(1) = (  -0.577350   0.577350   0.577350 )  
               a(2) = (   0.577350  -0.577350   0.577350 )  
               a(3) = (   0.577350   0.577350  -0.577350 )  

     reciprocal axes: (cart. coord. in units 2 pi/alat)
               b(1) = (  0.000000  0.866025  0.866025 )  
               b(2) = (  0.866025  0.000000  0.866025 )  
               b(3) = (  0.866025  0.866025  0.000000 )  


     PseudoPot. # 1 for Fe read from file:
     /home/bond/Software/QE/qe-7.4.1/pseudo/Fe.pbe-nd-rrkjus.UPF
     MD5 check sum: 398036227a04b607635f6f5e8dfd8242
     Pseudo is Ultrasoft + core correction, Zval =  8.0
     Generated by new atomic code, or converted to UPF format
     Using radial grid of  957 points,  6 beta functions with: 
                l(1) =   0
                l(2) =   0
                l(3) =   1
                l(4) =   1
                l(5) =   2
                l(6) =   2
     Q(r) pseudized with 0 coefficients 


     atomic species   valence    mass     pseudopotential
     Fe                8.00    55.84500     Fe( 1.00)

     Starting magnetic structure 
     atomic species   magnetization
     Fe              0.700

     48 Sym. Ops., with inversion, found



   Cartesian axes

     site n.     atom                  positions (alat units)
         1        Fe     tau(   1) = (   0.0000000   0.0000000   0.0000000  )

     number of k points=    10  Methfessel-Paxton smearing, width (Ry)=  0.0200
                       cart. coord. in units 2pi/alat
        k(    1) = (   0.0000000   0.0000000   0.0000000), wk =   0.0080000
        k(    2) = (   0.1732051   0.1732051   0.0000000), wk =   0.0960000
        k(    3) = (   0.3464102   0.3464102   0.0000000), wk =   0.0960000
        k(    4) = (   0.3464102   0.1732051   0.1732051), wk =   0.1920000
        k(    5) = (   0.5196152   0.3464102   0.1732051), wk =   0.1920000
        k(    6) = (   0.3464102   0.3464102   0.3464102), wk =   0.0640000
        k(    7) = (   0.0000000   0.0000000   0.3464102), wk =   0.0480000
        k(    8) = (   0.0000000  -0.1732051   0.5196152), wk =   0.1920000
        k(    9) = (  -0.6928203  -0.1732051  -0.1732051), wk =   0.0640000
        k(   10) = (   0.0000000   0.0000000   0.6928203), wk =   0.0480000

     Dense  grid:     5775 G-vectors     FFT dimensions: (  25,  25,  25)

     Smooth grid:     1481 G-vectors     FFT dimensions: (  15,  15,  15)

     Estimated max dynamical RAM per process >      14.90 MB

     Estimated total dynamical RAM >      29.80 MB

     Check: negative core charge=   -0.000001
     Generating pointlists ...
     new r_m :   0.4125 (alat units)  1.8227 (a.u.) for type    1

     Initial potential from superposition of free atoms

     starting charge       7.9994, renormalised to       8.0000
     Starting wfcs are    6 randomized atomic wfcs +    2 random wfcs

     total cpu time spent up to now is        0.5 secs

     Self-consistent Calculation

     iteration #  1     ecut=    30.00 Ry     beta= 0.50
     Davidson diagonalization with overlap
     ethr =  1.00E-02,  avg # of iterations =  4.3

     total cpu time spent up to now is        0.5 secs

     total energy              =     -55.66906465 Ry
     estimated scf accuracy    <       0.28908940 Ry

     total magnetization       =     2.87 Bohr mag/cell
     absolute magnetization    =     2.87 Bohr mag/cell

     iteration #  2     ecut=    30.00 Ry     beta= 0.50
     Davidson diagonalization with overlap
     ethr =  3.61E-03,  avg # of iterations =  1.9

     total cpu time spent up to now is        0.6 secs

     total energy              =     -55.74885032 Ry
     estimated scf accuracy    <       0.02654811 Ry

     total magnetization       =     2.87 Bohr mag/cell
     absolute magnetization    =     2.87 Bohr mag/cell

     iteration #  3     ecut=    30.00 Ry     beta= 0.50
     Davidson diagonalization with overlap
     ethr =  3.32E-04,  avg # of iterations =  1.6

     total cpu time spent up to now is        0.6 secs

     total energy              =     -55.76972812 Ry
     estimated scf accuracy    <       0.01126862 Ry

     total magnetization       =     2.57 Bohr mag/cell
     absolute magnetization    =     2.58 Bohr mag/cell

     iteration #  4     ecut=    30.00 Ry     beta= 0.50
     Davidson diagonalization with overlap
     ethr =  1.41E-04,  avg # of iterations =  1.4

     total cpu time spent up to now is        0.7 secs

     total energy              =     -55.78388005 Ry
     estimated scf accuracy    <       0.00482019 Ry

     total magnetization       =     1.97 Bohr mag/cell
     absolute magnetization    =     2.10 Bohr mag/cell

     iteration #  5     ecut=    30.00 Ry     beta= 0.50
     Davidson diagonalization with overlap
     ethr =  6.03E-05,  avg # of iterations =  2.8

     total cpu time spent up to now is        0.8 secs

     total energy              =     -55.78492200 Ry
     estimated scf accuracy    <       0.00041530 Ry

     total magnetization       =     2.00 Bohr mag/cell
     absolute magnetization    =     2.12 Bohr mag/cell

     iteration #  6     ecut=    30.00 Ry     beta= 0.50
     Davidson diagonalization with overlap
     ethr =  5.19E-06,  avg # of iterations =  4.2

     total cpu time spent up to now is        0.9 secs

     total energy              =     -55.78508040 Ry
     estimated scf accuracy    <       0.00001787 Ry

     total magnetization       =     2.00 Bohr mag/cell
     absolute magnetization    =     2.10 Bohr mag/cell

     iteration #  7     ecut=    30.00 Ry     beta= 0.50
     Davidson diagonalization with overlap
     ethr =  2.23E-07,  avg # of iterations =  4.2

     total cpu time spent up to now is        0.9 secs

     total energy              =     -55.78510176 Ry
     estimated scf accuracy    <       0.00006986 Ry

     total magnetization       =     1.99 Bohr mag/cell
     absolute magnetization    =     2.09 Bohr mag/cell

     iteration #  8     ecut=    30.00 Ry     beta= 0.50
     Davidson diagonalization with overlap
     ethr =  2.23E-07,  avg # of iterations =  2.0

     total cpu time spent up to now is        1.0 secs

     total energy              =     -55.78512121 Ry
     estimated scf accuracy    <       0.00000323 Ry

     total magnetization       =     1.99 Bohr mag/cell
     absolute magnetization    =     2.09 Bohr mag/cell

     iteration #  9     ecut=    30.00 Ry     beta= 0.50
     Davidson diagonalization with overlap
     ethr =  4.04E-08,  avg # of iterations =  1.3

     total cpu time spent up to now is        1.1 secs

     total energy              =     -55.78512159 Ry
     estimated scf accuracy    <       0.00000059 Ry

     total magnetization       =     1.99 Bohr mag/cell
     absolute magnetization    =     2.09 Bohr mag/cell

     iteration # 10     ecut=    30.00 Ry     beta= 0.50
     Davidson diagonalization with overlap
     ethr =  7.38E-09,  avg # of iterations =  3.0

     total cpu time spent up to now is        1.1 secs

     total energy              =     -55.78512196 Ry
     estimated scf accuracy    <       0.00000019 Ry

     total magnetization       =     1.99 Bohr mag/cell
     absolute magnetization    =     2.09 Bohr mag/cell

     iteration # 11     ecut=    30.00 Ry     beta= 0.50
     Davidson diagonalization with overlap
     ethr =  2.34E-09,  avg # of iterations =  2.0

     Magnetic moment per site  (integrated on atomic sphere of radius R)
     atom   1 (R=0.413)  charge=  6.3462  magn=  2.0264

     total cpu time spent up to now is        1.2 secs

     End of self-consistent calculation

 ------ SPIN UP ------------


          k = 0.0000 0.0000 0.0000 (   177 PWs)   bands (ev):

     7.0795  13.5709  13.5709  13.5709  15.0544  15.0544  42.3852  42.3852

          k = 0.1732 0.1732 0.0000 (   186 PWs)   bands (ev):

     8.7927  13.0812  13.4299  14.5855  14.8136  15.1089  36.1529  40.0331

          k = 0.3464 0.3464 0.0000 (   184 PWs)   bands (ev):

    10.5081  12.3497  14.9855  15.2680  15.6546  16.5118  27.1894  36.3471

          k = 0.3464 0.1732 0.1732 (   182 PWs)   bands (ev):

    11.0151  12.5528  13.0108  14.8066  15.4276  16.9616  31.6982  32.8689

          k = 0.5196 0.3464 0.1732 (   189 PWs)   bands (ev):

    11.3086  12.3556  13.6343  15.1455  15.7702  20.8479  25.1799  30.6203

          k = 0.3464 0.3464 0.3464 (   183 PWs)   bands (ev):

    12.2571  12.2571  12.7658  15.3115  15.3115  21.4657  28.6811  28.6811

          k = 0.0000 0.0000 0.3464 (   185 PWs)   bands (ev):

    10.1795  13.3892  13.8086  13.8086  14.5587  15.8802  36.2225  37.9129

          k = 0.0000-0.1732 0.5196 (   186 PWs)   bands (ev):

    11.3075  12.4146  13.5163  14.6193  16.3614  18.9743  28.0774  34.0301

          k =-0.6928-0.1732-0.1732 (   191 PWs)   bands (ev):

    11.5851  11.5851  13.5116  15.9486  15.9486  25.0099  25.0099  27.4244

          k = 0.0000 0.0000 0.6928 (   188 PWs)   bands (ev):

    10.8293  10.8504  15.8100  15.8100  16.2514  23.3845  29.1757  29.1757

 ------ SPIN DOWN ----------


          k = 0.0000 0.0000 0.0000 (   177 PWs)   bands (ev):

     7.2101  15.4257  15.4257  15.4257  17.9136  17.9136  42.2066  42.2067

          k = 0.1732 0.1732 0.0000 (   186 PWs)   bands (ev):

     8.9679  14.8534  15.2109  16.5203  17.5056  17.9775  36.6552  40.1323

          k = 0.3464 0.3464 0.0000 (   184 PWs)   bands (ev):

    11.5892  14.0126  16.0622  17.6997  18.1914  18.6419  28.2693  36.4189

          k = 0.3464 0.1732 0.1732 (   182 PWs)   bands (ev):

    11.5943  14.2787  14.5300  17.3497  18.1745  18.8886  32.4595  33.4426

          k = 0.5196 0.3464 0.1732 (   189 PWs)   bands (ev):

    12.6702  13.9537  15.0630  17.6997  18.3032  22.0611  26.3823  31.2392

          k = 0.3464 0.3464 0.3464 (   183 PWs)   bands (ev):

    13.7212  13.7212  13.7749  18.2070  18.2070  22.7481  29.4490  29.4490

          k = 0.0000 0.0000 0.3464 (   185 PWs)   bands (ev):

    10.4876  15.5933  15.5933  15.8128  16.5013  18.6499  36.8088  38.4549

          k = 0.0000-0.1732 0.5196 (   186 PWs)   bands (ev):

    12.6587  14.2218  15.2579  16.7198  18.4729  20.5574  29.0220  34.5619

          k =-0.6928-0.1732-0.1732 (   191 PWs)   bands (ev):

    13.3912  13.3912  15.1565  18.0363  18.0363  26.0136  26.0136  28.1434

          k = 0.0000 0.0000 0.6928 (   188 PWs)   bands (ev):

    12.6106  12.7401  17.7828  17.7828  18.3628  24.1684  29.5591  29.5592

     the Fermi energy is    16.2765 ev

!    total energy              =     -55.78512199 Ry
     estimated scf accuracy    <       0.00000005 Ry
     smearing contrib. (-TS)   =       0.00028487 Ry
     internal energy E=F+TS    =     -55.78540686 Ry

     The total energy is F=E-TS. E is the sum of the following terms:
     one-electron contribution =      10.68064485 Ry
     hartree contribution      =       5.70134351 Ry
     xc contribution           =     -26.51881668 Ry
     ewald contribution        =     -45.64857853 Ry

     total magnetization       =     1.99 Bohr mag/cell
     absolute magnetization    =     2.09 Bohr mag/cell

     convergence has been achieved in  11 iterations

     Forces acting on atoms (cartesian axes, Ry/au):

     atom    1 type  1   force =     0.00000000    0.00000000    0.00000000

     Total force =     0.000000     Total SCF correction =     0.000000


     Computing stress (Cartesian axis) and pressure

          total   stress  (Ry/bohr**3)                   (kbar)     P=      402.63
   0.00273705  -0.00000000  -0.00000000          402.63       -0.00       -0.00
  -0.00000000   0.00273705  -0.00000000           -0.00      402.63       -0.00
  -0.00000000  -0.00000000   0.00273705           -0.00       -0.00      402.63


     BFGS Geometry Optimization
     Energy error            =      3.3E-02 Ry
     Gradient error          =      0.0E+00 Ry/Bohr
     Cell gradient error     =      4.0E+02 kbar

     number of scf cycles    =   1
     number of bfgs steps    =   0

     enthalpy           new  =     -55.7851219906 Ry

     new trust radius        =       0.1115275229 bohr
     new conv_thr            =       0.0000001000 Ry

     new unit-cell volume =     81.00123 a.u.^3 (    12.00314 Ang^3 )
     density =      7.72571 g/cm^3

CELL_PARAMETERS (angstrom)
  -1.442375517   1.442375517   1.442375517
   1.442375517  -1.442375517   1.442375517
   1.442375517   1.442375517  -1.442375517

ATOMIC_POSITIONS (angstrom)
Fe               0.0000000000        0.0000000000        0.0000000000


     Message from routine punch:
     Nothing written, as per user request (disk_io='none')
     NEW-OLD atomic charge density approx. for the potential
     New effective cutoffs (rho, wfc):  260.38   26.25

     Check: negative core charge=   -0.000002
     Generating pointlists ...

     total cpu time spent up to now is        1.3 secs

     Self-consistent Calculation

     iteration #  1     ecut=    30.00 Ry     beta= 0.50
     Davidson diagonalization with overlap
     ethr =  1.00E-06,  avg # of iterations =  6.4

     total cpu time spent up to now is        1.4 secs

     total energy              =     -55.79478440 Ry
     estimated scf accuracy    <       0.00183997 Ry

     total magnetization       =     2.15 Bohr mag/cell
     absolute magnetization    =     2.24 Bohr mag/cell

     iteration #  2     ecut=    30.00 Ry     beta= 0.50
     Davidson diagonalization with overlap
     ethr =  2.30E-05,  avg # of iterations =  1.0

     total cpu time spent up to now is        1.5 secs

     total energy              =     -55.79523487 Ry
     estimated scf accuracy    <       0.00081201 Ry

     total magnetization       =     2.19 Bohr mag/cell
     absolute magnetization    =     2.28 Bohr mag/cell

     iteration #  3     ecut=    30.00 Ry     beta= 0.50
     Davidson diagonalization with overlap
     ethr =  1.02E-05,  avg # of iterations =  1.5

     total cpu time spent up to now is        1.6 secs

     total energy              =     -55.79553592 Ry
     estimated scf accuracy    <       0.00010839 Ry

     total magnetization       =     2.28 Bohr mag/cell
     absolute magnetization    =     2.39 Bohr mag/cell

     iteration #  4     ecut=    30.00 Ry     beta= 0.50
     Davidson diagonalization with overlap
     ethr =  1.35E-06,  avg # of iterations =  1.0

     total cpu time spent up to now is        1.6 secs

     total energy              =     -55.79569171 Ry
     estimated scf accuracy    <       0.00012807 Ry

     total magnetization       =     2.26 Bohr mag/cell
     absolute magnetization    =     2.36 Bohr mag/cell

     iteration #  5     ecut=    30.00 Ry     beta= 0.50
     Davidson diagonalization with overlap
     ethr =  1.35E-06,  avg # of iterations =  1.6

     total cpu time spent up to now is        1.7 secs

     total energy              =     -55.79545488 Ry
     estimated scf accuracy    <       0.00010306 Ry

     total magnetization       =     2.32 Bohr mag/cell
     absolute magnetization    =     2.43 Bohr mag/cell

     iteration #  6     ecut=    30.00 Ry     beta= 0.50
     Davidson diagonalization with overlap
     ethr =  1.29E-06,  avg # of iterations =  2.2

     total cpu time spent up to now is        1.8 secs

     total energy              =     -55.79516640 Ry
     estimated scf accuracy    <       0.00006302 Ry

     total magnetization       =     2.47 Bohr mag/cell
     absolute magnetization    =     2.59 Bohr mag/cell

     iteration #  7     ecut=    30.00 Ry     beta= 0.50
     Davidson diagonalization with overlap
     ethr =  7.88E-07,  avg # of iterations =  2.8

     total cpu time spent up to now is        1.9 secs

     total energy              =     -55.79589799 Ry
     estimated scf accuracy    <       0.00013475 Ry

     total magnetization       =     2.62 Bohr mag/cell
     absolute magnetization    =     2.75 Bohr mag/cell

     iteration #  8     ecut=    30.00 Ry     beta= 0.50
     Davidson diagonalization with overlap
     ethr =  7.88E-07,  avg # of iterations =  2.1

     total cpu time spent up to now is        1.9 secs

     total energy              =     -55.79638927 Ry
     estimated scf accuracy    <       0.00000973 Ry

     total magnetization       =     2.52 Bohr mag/cell
     absolute magnetization    =     2.64 Bohr mag/cell

     iteration #  9     ecut=    30.00 Ry     beta= 0.50
     Davidson diagonalization with overlap
     ethr =  1.22E-07,  avg # of iterations =  1.6

     total cpu time spent up to now is        2.0 secs

     total energy              =     -55.79636828 Ry
     estimated scf accuracy    <       0.00001637 Ry

     total magnetization       =     2.51 Bohr mag/cell
     absolute magnetization    =     2.63 Bohr mag/cell

     iteration # 10     ecut=    30.00 Ry     beta= 0.50
     Davidson diagonalization with overlap
     ethr =  1.22E-07,  avg # of iterations =  2.1

     total cpu time spent up to now is        2.1 secs

     total energy              =     -55.79643805 Ry
     estimated scf accuracy    <       0.00000047 Ry

     total magnetization       =     2.55 Bohr mag/cell
     absolute magnetization    =     2.67 Bohr mag/cell

     iteration # 11     ecut=    30.00 Ry     beta= 0.50
     Davidson diagonalization with overlap
     ethr =  5.83E-09,  avg # of iterations =  3.0

     total cpu time spent up to now is        2.1 secs

     total energy              =     -55.79643942 Ry
     estimated scf accuracy    <       0.00000021 Ry

     total magnetization       =     2.55 Bohr mag/cell
     absolute magnetization    =     2.68 Bohr mag/cell

     iteration # 12     ecut=    30.00 Ry     beta= 0.50
     Davidson diagonalization with overlap
     ethr =  2.69E-09,  avg # of iterations =  2.2

     total cpu time spent up to now is        2.2 secs

     total energy              =     -55.79643926 Ry
     estimated scf accuracy    <       0.00000013 Ry

     total magnetization       =     2.55 Bohr mag/cell
     absolute magnetization    =     2.68 Bohr mag/cell

     iteration # 13     ecut=    30.00 Ry     beta= 0.50
     Davidson diagonalization with overlap
     ethr =  1.59E-09,  avg # of iterations =  2.5

     Magnetic moment per site  (integrated on atomic sphere of radius R)
     atom   1 (R=0.413)  charge=  6.1492  magn=  2.5844

     total cpu time spent up to now is        2.2 secs

     End of self-consistent calculation

 ------ SPIN UP ------------


          k = 0.0000 0.0000 0.0000 (   177 PWs)   bands (ev):

     4.4988  10.2104  10.2104  10.2104  11.3456  11.3456  36.8047  36.8047

          k = 0.1621 0.1621 0.0000 (   186 PWs)   bands (ev):

     5.9902   9.8570  10.1255  10.9676  11.1653  11.3831  30.1253  34.2313

          k = 0.3242 0.3242 0.0000 (   184 PWs)   bands (ev):

     7.8208   9.3193  11.2880  11.4878  11.9298  12.3916  21.4938  30.8981

          k = 0.3242 0.1621 0.1621 (   182 PWs)   bands (ev):

     8.0661   9.4945   9.7934  11.1524  11.5977  12.7877  25.9712  26.7299

          k = 0.4863 0.3242 0.1621 (   189 PWs)   bands (ev):

     8.5058   9.3265  10.3058  11.3913  11.8555  16.2608  19.6463  24.8132

          k = 0.3242 0.3242 0.3242 (   183 PWs)   bands (ev):

     9.2443   9.2443   9.5802  11.5151  11.5151  16.6291  23.2312  23.2312

          k = 0.0000 0.0000 0.3242 (   185 PWs)   bands (ev):

     7.2445  10.1609  10.4009  10.4009  10.9537  11.9283  30.6096  31.2794

          k = 0.0000-0.1621 0.4863 (   186 PWs)   bands (ev):

     8.5098   9.4064  10.1899  11.0106  12.2833  14.5398  22.3883  27.7528

          k =-0.6484-0.1621-0.1621 (   191 PWs)   bands (ev):

     8.7950   8.7950  10.1812  11.9862  11.9862  19.8683  19.8683  21.6706

          k = 0.0000 0.0000 0.6484 (   188 PWs)   bands (ev):

     8.2409   8.2544  11.8872  11.8872  12.2033  18.4417  23.6123  23.6123

 ------ SPIN DOWN ----------


          k = 0.0000 0.0000 0.0000 (   177 PWs)   bands (ev):

     4.6484  12.7348  12.7348  12.7348  14.6414  14.6414  36.5469  36.5469

          k = 0.1621 0.1621 0.0000 (   186 PWs)   bands (ev):

     6.1783  12.2817  12.5242  13.5908  14.3321  14.6911  30.7137  34.3017

          k = 0.3242 0.3242 0.0000 (   184 PWs)   bands (ev):

     9.0866  11.6077  12.6452  14.4781  14.8517  15.2538  22.8069  30.9346

          k = 0.3242 0.1621 0.1621 (   182 PWs)   bands (ev):

     8.6697  11.7455  11.9413  14.2178  14.8490  15.3460  26.8392  27.4603

          k = 0.4863 0.3242 0.1621 (   189 PWs)   bands (ev):

    10.2538  11.4983  12.0266  14.4811  14.9452  17.7854  21.1559  25.5770

          k = 0.3242 0.3242 0.3242 (   183 PWs)   bands (ev):

    10.9061  11.2390  11.2390  14.8646  14.8646  18.3415  24.1732  24.1732

          k = 0.0000 0.0000 0.3242 (   185 PWs)   bands (ev):

     7.5489  12.8389  12.8389  13.0138  13.5890  15.1533  31.1407  31.9948

          k = 0.0000-0.1621 0.4863 (   186 PWs)   bands (ev):

    10.0267  11.5752  12.5735  13.7077  15.1236  16.4517  23.5077  28.4343

          k =-0.6484-0.1621-0.1621 (   191 PWs)   bands (ev):

    10.9312  10.9312  12.4252  14.7570  14.7570  21.0192  21.0192  22.6066

          k = 0.0000 0.0000 0.6484 (   188 PWs)   bands (ev):

    10.3102  10.5320  14.5558  14.5558  15.0437  19.3539  24.1033  24.1033

     the Fermi energy is    12.6375 ev

!    total energy              =     -55.79644012 Ry
     estimated scf accuracy    <       0.00000004 Ry
     smearing contrib. (-TS)   =      -0.00044285 Ry
     internal energy E=F+TS    =     -55.79599727 Ry

     The total energy is F=E-TS. E is the sum of the following terms:
     one-electron contribution =       6.57507648 Ry
     hartree contribution      =       6.80288365 Ry
     xc contribution           =     -26.44889704 Ry
     ewald contribution        =     -42.72506036 Ry

     total magnetization       =     2.55 Bohr mag/cell
     absolute magnetization    =     2.68 Bohr mag/cell

     convergence has been achieved in  13 iterations

     Forces acting on atoms (cartesian axes, Ry/au):

     atom    1 type  1   force =     0.00000000    0.00000000    0.00000000

     Total force =     0.000000     Total SCF correction =     0.000000


     Computing stress (Cartesian axis) and pressure

          total   stress  (Ry/bohr**3)                   (kbar)     P=      -18.46
  -0.00012548  -0.00000000  -0.00000000          -18.46       -0.00       -0.00
  -0.00000000  -0.00012548  -0.00000000           -0.00      -18.46       -0.00
  -0.00000000  -0.00000000  -0.00012548           -0.00       -0.00      -18.46

     Energy error            =      1.1E-02 Ry
     Gradient error          =      0.0E+00 Ry/Bohr
     Cell gradient error     =      1.8E+01 kbar

     number of scf cycles    =   2
     number of bfgs steps    =   1

     enthalpy           old  =     -55.7851219906 Ry
     enthalpy           new  =     -55.7964401207 Ry

     CASE: enthalpy          _new < enthalpy          _old

     new trust radius        =       0.0057330101 bohr
     new conv_thr            =       0.0000000010 Ry

     new unit-cell volume =     80.22973 a.u.^3 (    11.88882 Ang^3 )
     density =      7.80000 g/cm^3

CELL_PARAMETERS (angstrom)
  -1.437781577   1.437781577   1.437781577
   1.437781577  -1.437781577   1.437781577
   1.437781577   1.437781577  -1.437781577

ATOMIC_POSITIONS (angstrom)
Fe               0.0000000000        0.0000000000        0.0000000000


     Message from routine punch:
     Nothing written, as per user request (disk_io='none')
     NEW-OLD atomic charge density approx. for the potential
     New effective cutoffs (rho, wfc):  262.04   26.42

     Check: negative core charge=   -0.000002
     Generating pointlists ...

     total cpu time spent up to now is        2.4 secs

     Self-consistent Calculation

     iteration #  1     ecut=    30.00 Ry     beta= 0.50
     Davidson diagonalization with overlap
     ethr =  1.00E-06,  avg # of iterations =  3.4

     total cpu time spent up to now is        2.4 secs

     total energy              =     -55.79648588 Ry
     estimated scf accuracy    <       0.00001383 Ry

     total magnetization       =     2.54 Bohr mag/cell
     absolute magnetization    =     2.67 Bohr mag/cell

     iteration #  2     ecut=    30.00 Ry     beta= 0.50
     Davidson diagonalization with overlap
     ethr =  1.73E-07,  avg # of iterations =  1.2

     total cpu time spent up to now is        2.5 secs

     total energy              =     -55.79649205 Ry
     estimated scf accuracy    <       0.00000917 Ry

     total magnetization       =     2.53 Bohr mag/cell
     absolute magnetization    =     2.66 Bohr mag/cell

     iteration #  3     ecut=    30.00 Ry     beta= 0.50
     Davidson diagonalization with overlap
     ethr =  1.15E-07,  avg # of iterations =  1.1

     total cpu time spent up to now is        2.5 secs

     total energy              =     -55.79649289 Ry
     estimated scf accuracy    <       0.00000522 Ry

     total magnetization       =     2.53 Bohr mag/cell
     absolute magnetization    =     2.65 Bohr mag/cell

     iteration #  4     ecut=    30.00 Ry     beta= 0.50
     Davidson diagonalization with overlap
     ethr =  6.53E-08,  avg # of iterations =  1.9

     total cpu time spent up to now is        2.6 secs

     total energy              =     -55.79650122 Ry
     estimated scf accuracy    <       0.00000051 Ry

     total magnetization       =     2.51 Bohr mag/cell
     absolute magnetization    =     2.64 Bohr mag/cell

     iteration #  5     ecut=    30.00 Ry     beta= 0.50
     Davidson diagonalization with overlap
     ethr =  6.37E-09,  avg # of iterations =  2.5

     total cpu time spent up to now is        2.7 secs

     total energy              =     -55.79650476 Ry
     estimated scf accuracy    <       0.00000003 Ry

     total magnetization       =     2.51 Bohr mag/cell
     absolute magnetization    =     2.63 Bohr mag/cell

     iteration #  6     ecut=    30.00 Ry     beta= 0.50
     Davidson diagonalization with overlap
     ethr =  3.93E-10,  avg # of iterations =  2.4

     total cpu time spent up to now is        2.7 secs

     total energy              =     -55.79650488 Ry
     estimated scf accuracy    <          1.7E-09 Ry

     total magnetization       =     2.51 Bohr mag/cell
     absolute magnetization    =     2.63 Bohr mag/cell

     iteration #  7     ecut=    30.00 Ry     beta= 0.50
     Davidson diagonalization with overlap
     ethr =  2.16E-11,  avg # of iterations =  4.5

     Magnetic moment per site  (integrated on atomic sphere of radius R)
     atom   1 (R=0.413)  charge=  6.1582  magn=  2.5353

     total cpu time spent up to now is        2.8 secs

     End of self-consistent calculation

 ------ SPIN UP ------------


          k = 0.0000 0.0000 0.0000 (   177 PWs)   bands (ev):

     4.6101  10.3821  10.3821  10.3821  11.5212  11.5212  37.0567  37.0567

          k = 0.1626 0.1626 0.0000 (   186 PWs)   bands (ev):

     6.1119  10.0223  10.2916  11.1508  11.3400  11.5595  30.3992  34.4930

          k = 0.3253 0.3253 0.0000 (   184 PWs)   bands (ev):

     7.9506   9.4754  11.4639  11.6668  12.0994  12.5975  21.7519  31.1422

          k = 0.3253 0.1626 0.1626 (   182 PWs)   bands (ev):

     8.2013   9.6470   9.9546  11.3296  11.7803  12.9899  26.2293  27.0088

          k = 0.4879 0.3253 0.1626 (   189 PWs)   bands (ev):

     8.6440   9.4804  10.4641  11.5732  12.0458  16.4685  19.8991  25.0752

          k = 0.3253 0.3253 0.3253 (   183 PWs)   bands (ev):

     9.3963   9.3963   9.7341  11.6954  11.6954  16.8524  23.4772  23.4772

          k = 0.0000 0.0000 0.3253 (   185 PWs)   bands (ev):

     7.3728  10.3152  10.5740  10.5740  11.1365  12.1134  30.8596  31.5819

          k = 0.0000-0.1626 0.4879 (   186 PWs)   bands (ev):

     8.6432   9.5483  10.3592  11.1890  12.4873  14.7403  22.6449  28.0366

          k =-0.6505-0.1626-0.1626 (   191 PWs)   bands (ev):

     8.9283   8.9283  10.3496  12.1836  12.1836  20.0983  20.0983  21.9313

          k = 0.0000 0.0000 0.6505 (   188 PWs)   bands (ev):

     8.3655   8.3786  12.0836  12.0836  12.4060  18.6623  23.8622  23.8622

 ------ SPIN DOWN ----------


          k = 0.0000 0.0000 0.0000 (   177 PWs)   bands (ev):

     4.7558  12.8404  12.8404  12.8404  14.7854  14.7854  36.8028  36.8028

          k = 0.1626 0.1626 0.0000 (   186 PWs)   bands (ev):

     6.2959  12.3827  12.6314  13.7063  14.4705  14.8356  30.9780  34.5667

          k = 0.3253 0.3253 0.0000 (   184 PWs)   bands (ev):

     9.1944  11.7022  12.7879  14.6152  14.9981  15.3881  23.0414  31.1840

          k = 0.3253 0.1626 0.1626 (   182 PWs)   bands (ev):

     8.7950  11.8491  12.0433  14.3522  14.9910  15.4907  27.0854  27.7233

          k = 0.4879 0.3253 0.1626 (   189 PWs)   bands (ev):

    10.3544  11.5961  12.1557  14.6183  15.0879  17.9644  21.3786  25.8242

          k = 0.3253 0.3253 0.3253 (   183 PWs)   bands (ev):

    11.0255  11.3386  11.3386  15.0105  15.0105  18.5243  24.4019  24.4019

          k = 0.0000 0.0000 0.3253 (   185 PWs)   bands (ev):

     7.6740  12.9477  12.9477  13.1381  13.7038  15.3058  31.3949  32.2771

          k = 0.0000-0.1626 0.4879 (   186 PWs)   bands (ev):

    10.1417  11.6903  12.6797  13.8323  15.2564  16.6274  23.7454  28.6990

          k =-0.6505-0.1626-0.1626 (   191 PWs)   bands (ev):

    11.0397  11.0397  12.5343  14.8889  14.8889  21.2338  21.2338  22.8446

          k = 0.0000 0.0000 0.6505 (   188 PWs)   bands (ev):

    10.4128  10.6311  14.6841  14.6841  15.1753  19.5613  24.3379  24.3379

     the Fermi energy is    12.7727 ev

!    total energy              =     -55.79650494 Ry
     estimated scf accuracy    <          8.3E-11 Ry
     smearing contrib. (-TS)   =      -0.00020144 Ry
     internal energy E=F+TS    =     -55.79630350 Ry

     The total energy is F=E-TS. E is the sum of the following terms:
     one-electron contribution =       6.76331546 Ry
     hartree contribution      =       6.75177539 Ry
     xc contribution           =     -26.44982068 Ry
     ewald contribution        =     -42.86157368 Ry

     total magnetization       =     2.50 Bohr mag/cell
     absolute magnetization    =     2.63 Bohr mag/cell

     convergence has been achieved in   7 iterations

     Forces acting on atoms (cartesian axes, Ry/au):

     atom    1 type  1   force =     0.00000000    0.00000000    0.00000000

     Total force =     0.000000     Total SCF correction =     0.000000


     Computing stress (Cartesian axis) and pressure

          total   stress  (Ry/bohr**3)                   (kbar)     P=       -9.35
  -0.00006355  -0.00000000  -0.00000000           -9.35       -0.00       -0.00
  -0.00000000  -0.00006355  -0.00000000           -0.00       -9.35       -0.00
  -0.00000000  -0.00000000  -0.00006355           -0.00       -0.00       -9.35

     Energy error            =      6.5E-05 Ry
     Gradient error          =      0.0E+00 Ry/Bohr
     Cell gradient error     =      9.3E+00 kbar

     number of scf cycles    =   3
     number of bfgs steps    =   2

     enthalpy           old  =     -55.7964401207 Ry
     enthalpy           new  =     -55.7965049406 Ry

     CASE: enthalpy          _new < enthalpy          _old

     new trust radius        =       0.0057980601 bohr
     new conv_thr            =       0.0000000010 Ry

     new unit-cell volume =     79.45324 a.u.^3 (    11.77376 Ang^3 )
     density =      7.87623 g/cm^3

CELL_PARAMETERS (angstrom)
  -1.433128096   1.433128096   1.433128096
   1.433128096  -1.433128096   1.433128096
   1.433128096   1.433128096  -1.433128096

ATOMIC_POSITIONS (angstrom)
Fe               0.0000000000        0.0000000000        0.0000000000


     Message from routine punch:
     Nothing written, as per user request (disk_io='none')
     NEW-OLD atomic charge density approx. for the potential
     New effective cutoffs (rho, wfc):  263.75   26.59

     Check: negative core charge=   -0.000003
     Generating pointlists ...

     total cpu time spent up to now is        2.9 secs

     Self-consistent Calculation

     iteration #  1     ecut=    30.00 Ry     beta= 0.50
     Davidson diagonalization with overlap
     ethr =  1.00E-06,  avg # of iterations =  3.4

     total cpu time spent up to now is        3.0 secs

     total energy              =     -55.79651924 Ry
     estimated scf accuracy    <       0.00001250 Ry

     total magnetization       =     2.49 Bohr mag/cell
     absolute magnetization    =     2.61 Bohr mag/cell

     iteration #  2     ecut=    30.00 Ry     beta= 0.50
     Davidson diagonalization with overlap
     ethr =  1.56E-07,  avg # of iterations =  1.1

     total cpu time spent up to now is        3.0 secs

     total energy              =     -55.79652669 Ry
     estimated scf accuracy    <       0.00000873 Ry

     total magnetization       =     2.48 Bohr mag/cell
     absolute magnetization    =     2.61 Bohr mag/cell

     iteration #  3     ecut=    30.00 Ry     beta= 0.50
     Davidson diagonalization with overlap
     ethr =  1.09E-07,  avg # of iterations =  1.4

     total cpu time spent up to now is        3.1 secs

     total energy              =     -55.79653083 Ry
     estimated scf accuracy    <       0.00000438 Ry

     total magnetization       =     2.47 Bohr mag/cell
     absolute magnetization    =     2.60 Bohr mag/cell

     iteration #  4     ecut=    30.00 Ry     beta= 0.50
     Davidson diagonalization with overlap
     ethr =  5.47E-08,  avg # of iterations =  1.9

     total cpu time spent up to now is        3.1 secs

     total energy              =     -55.79651926 Ry
     estimated scf accuracy    <       0.00000110 Ry

     total magnetization       =     2.46 Bohr mag/cell
     absolute magnetization    =     2.58 Bohr mag/cell

     iteration #  5     ecut=    30.00 Ry     beta= 0.50
     Davidson diagonalization with overlap
     ethr =  1.38E-08,  avg # of iterations =  2.9

     total cpu time spent up to now is        3.2 secs

     total energy              =     -55.79654477 Ry
     estimated scf accuracy    <       0.00000020 Ry

     total magnetization       =     2.44 Bohr mag/cell
     absolute magnetization    =     2.56 Bohr mag/cell

     iteration #  6     ecut=    30.00 Ry     beta= 0.50
     Davidson diagonalization with overlap
     ethr =  2.46E-09,  avg # of iterations =  1.4

     total cpu time spent up to now is        3.3 secs

     total energy              =     -55.79654511 Ry
     estimated scf accuracy    <       0.00000002 Ry

     total magnetization       =     2.44 Bohr mag/cell
     absolute magnetization    =     2.56 Bohr mag/cell

     iteration #  7     ecut=    30.00 Ry     beta= 0.50
     Davidson diagonalization with overlap
     ethr =  2.97E-10,  avg # of iterations =  3.1

     Magnetic moment per site  (integrated on atomic sphere of radius R)
     atom   1 (R=0.413)  charge=  6.1670  magn=  2.4652

     total cpu time spent up to now is        3.3 secs

     End of self-consistent calculation

 ------ SPIN UP ------------


          k = 0.0000 0.0000 0.0000 (   177 PWs)   bands (ev):

     4.7220  10.5637  10.5637  10.5637  11.6981  11.6981  37.3108  37.3108

          k = 0.1632 0.1632 0.0000 (   186 PWs)   bands (ev):

     6.2347  10.1970  10.4655  11.3443  11.5177  11.7375  30.6771  34.7563

          k = 0.3263 0.3263 0.0000 (   184 PWs)   bands (ev):

     8.0839   9.6403  11.6426  11.8475  12.2735  12.8148  22.0164  31.3875

          k = 0.3263 0.1632 0.1632 (   182 PWs)   bands (ev):

     8.3394   9.8050  10.1240  11.5114  11.9658  13.2010  26.4917  27.2935

          k = 0.4895 0.3263 0.1632 (   189 PWs)   bands (ev):

     8.7868   9.6421  10.6254  11.7601  12.2425  16.6815  20.1587  25.3427

          k = 0.3263 0.3263 0.3263 (   183 PWs)   bands (ev):

     9.5557   9.5557   9.8941  11.8780  11.8780  17.0828  23.7281  23.7281

          k = 0.0000 0.0000 0.3263 (   185 PWs)   bands (ev):

     7.5021  10.4702  10.7567  10.7567  11.3297  12.3005  31.1107  31.8919

          k = 0.0000-0.1632 0.4895 (   186 PWs)   bands (ev):

     8.7785   9.6907  10.5378  11.3748  12.7026  14.9442  22.9074  28.3279

          k =-0.6526-0.1632-0.1632 (   191 PWs)   bands (ev):

     9.0620   9.0620  10.5270  12.3911  12.3911  20.3328  20.3328  22.1989

          k = 0.0000 0.0000 0.6526 (   188 PWs)   bands (ev):

     8.4900   8.5026  12.2907  12.2907  12.6200  18.8872  24.1185  24.1185

 ------ SPIN DOWN ----------


          k = 0.0000 0.0000 0.0000 (   177 PWs)   bands (ev):

     4.8684  12.9264  12.9264  12.9264  14.9212  14.9212  37.0692  37.0692

          k = 0.1632 0.1632 0.0000 (   186 PWs)   bands (ev):

     6.4188  12.4651  12.7219  13.8015  14.5997  14.9717  31.2469  34.8423

          k = 0.3263 0.3263 0.0000 (   184 PWs)   bands (ev):

     9.2996  11.7794  12.9311  14.7398  15.1357  15.5003  23.2726  31.4446

          k = 0.3263 0.1632 0.1632 (   182 PWs)   bands (ev):

     8.9231  11.9402  12.1295  14.4753  15.1199  15.6203  27.3336  27.9891

          k = 0.4895 0.3263 0.1632 (   189 PWs)   bands (ev):

    10.4474  11.6791  12.2819  14.7432  15.2176  18.1354  21.5958  26.0738

          k = 0.3263 0.3263 0.3263 (   183 PWs)   bands (ev):

    11.1402  11.4254  11.4254  15.1468  15.1468  18.6962  24.6302  24.6302

          k = 0.0000 0.0000 0.3263 (   185 PWs)   bands (ev):

     7.8042  13.0382  13.0382  13.2565  13.7982  15.4497  31.6564  32.5609

          k = 0.0000-0.1632 0.4895 (   186 PWs)   bands (ev):

    10.2557  11.8019  12.7680  13.9425  15.3673  16.7989  23.9820  28.9654

          k =-0.6526-0.1632-0.1632 (   191 PWs)   bands (ev):

    11.1452  11.1452  12.6274  15.0017  15.0017  21.4478  21.4478  23.0820

          k = 0.0000 0.0000 0.6526 (   188 PWs)   bands (ev):

    10.5134  10.7268  14.7926  14.7926  15.2849  19.7707  24.5751  24.5751

     the Fermi energy is    12.9055 ev

!    total energy              =     -55.79654544 Ry
     estimated scf accuracy    <          3.9E-10 Ry
     smearing contrib. (-TS)   =      -0.00018030 Ry
     internal energy E=F+TS    =     -55.79636514 Ry

     The total energy is F=E-TS. E is the sum of the following terms:
     one-electron contribution =       6.95552240 Ry
     hartree contribution      =       6.69580540 Ry
     xc contribution           =     -26.44694431 Ry
     ewald contribution        =     -43.00074863 Ry

     total magnetization       =     2.44 Bohr mag/cell
     absolute magnetization    =     2.55 Bohr mag/cell

     convergence has been achieved in   7 iterations

     Forces acting on atoms (cartesian axes, Ry/au):

     atom    1 type  1   force =     0.00000000    0.00000000    0.00000000

     Total force =     0.000000     Total SCF correction =     0.000000


     Computing stress (Cartesian axis) and pressure

          total   stress  (Ry/bohr**3)                   (kbar)     P=       -7.82
  -0.00005319  -0.00000000  -0.00000000           -7.82       -0.00       -0.00
  -0.00000000  -0.00005319  -0.00000000           -0.00       -7.82       -0.00
  -0.00000000  -0.00000000  -0.00005319           -0.00       -0.00       -7.82

     Energy error            =      4.1E-05 Ry
     Gradient error          =      0.0E+00 Ry/Bohr
     Cell gradient error     =      7.8E+00 kbar

     number of scf cycles    =   4
     number of bfgs steps    =   3

     enthalpy           old  =     -55.7965049406 Ry
     enthalpy           new  =     -55.7965454424 Ry

     CASE: enthalpy          _new < enthalpy          _old


     WARNING: bfgs curvature condition failed, Theta= 0.962
     new trust radius        =       0.0086830044 bohr
     new conv_thr            =       0.0000000010 Ry

     new unit-cell volume =     78.29793 a.u.^3 (    11.60256 Ang^3 )
     density =      7.99245 g/cm^3

CELL_PARAMETERS (angstrom)
  -1.426147874   1.426147874   1.426147874
   1.426147874  -1.426147874   1.426147874
   1.426147874   1.426147874  -1.426147874

ATOMIC_POSITIONS (angstrom)
Fe               0.0000000000        0.0000000000        0.0000000000


     Message from routine punch:
     Nothing written, as per user request (disk_io='none')
     NEW-OLD atomic charge density approx. for the potential
     New effective cutoffs (rho, wfc):  266.34   26.85

     Check: negative core charge=   -0.000003
     Generating pointlists ...

     total cpu time spent up to now is        3.5 secs

     Self-consistent Calculation

     iteration #  1     ecut=    30.00 Ry     beta= 0.50
     Davidson diagonalization with overlap
     ethr =  1.00E-06,  avg # of iterations =  3.9

     total cpu time spent up to now is        3.5 secs

     total energy              =     -55.79652716 Ry
     estimated scf accuracy    <       0.00003574 Ry

     total magnetization       =     2.41 Bohr mag/cell
     absolute magnetization    =     2.53 Bohr mag/cell

     iteration #  2     ecut=    30.00 Ry     beta= 0.50
     Davidson diagonalization with overlap
     ethr =  4.47E-07,  avg # of iterations =  1.0

     total cpu time spent up to now is        3.6 secs

     total energy              =     -55.79651134 Ry
     estimated scf accuracy    <       0.00002750 Ry

     total magnetization       =     2.40 Bohr mag/cell
     absolute magnetization    =     2.51 Bohr mag/cell

     iteration #  3     ecut=    30.00 Ry     beta= 0.50
     Davidson diagonalization with overlap
     ethr =  3.44E-07,  avg # of iterations =  1.7

     total cpu time spent up to now is        3.6 secs

     total energy              =     -55.79661448 Ry
     estimated scf accuracy    <       0.00001092 Ry

     total magnetization       =     2.35 Bohr mag/cell
     absolute magnetization    =     2.46 Bohr mag/cell

     iteration #  4     ecut=    30.00 Ry     beta= 0.50
     Davidson diagonalization with overlap
     ethr =  1.37E-07,  avg # of iterations =  1.6

     total cpu time spent up to now is        3.7 secs

     total energy              =     -55.79594878 Ry
     estimated scf accuracy    <       0.00001068 Ry

     total magnetization       =     2.32 Bohr mag/cell
     absolute magnetization    =     2.43 Bohr mag/cell

     iteration #  5     ecut=    30.00 Ry     beta= 0.50
     Davidson diagonalization with overlap
     ethr =  1.33E-07,  avg # of iterations =  3.1

     total cpu time spent up to now is        3.7 secs

     total energy              =     -55.79624069 Ry
     estimated scf accuracy    <       0.00001791 Ry

     total magnetization       =     2.19 Bohr mag/cell
     absolute magnetization    =     2.30 Bohr mag/cell

     iteration #  6     ecut=    30.00 Ry     beta= 0.50
     Davidson diagonalization with overlap
     ethr =  1.33E-07,  avg # of iterations =  3.0

     total cpu time spent up to now is        3.8 secs

     total energy              =     -55.79663520 Ry
     estimated scf accuracy    <       0.00000555 Ry

     total magnetization       =     2.30 Bohr mag/cell
     absolute magnetization    =     2.41 Bohr mag/cell

     iteration #  7     ecut=    30.00 Ry     beta= 0.50
     Davidson diagonalization with overlap
     ethr =  6.94E-08,  avg # of iterations =  2.2

     total cpu time spent up to now is        3.9 secs

     total energy              =     -55.79668857 Ry
     estimated scf accuracy    <       0.00000081 Ry

     total magnetization       =     2.26 Bohr mag/cell
     absolute magnetization    =     2.37 Bohr mag/cell

     iteration #  8     ecut=    30.00 Ry     beta= 0.50
     Davidson diagonalization with overlap
     ethr =  1.01E-08,  avg # of iterations =  2.3

     total cpu time spent up to now is        3.9 secs

     total energy              =     -55.79669561 Ry
     estimated scf accuracy    <       0.00000009 Ry

     total magnetization       =     2.24 Bohr mag/cell
     absolute magnetization    =     2.35 Bohr mag/cell

     iteration #  9     ecut=    30.00 Ry     beta= 0.50
     Davidson diagonalization with overlap
     ethr =  1.12E-09,  avg # of iterations =  2.6

     total cpu time spent up to now is        4.0 secs

     total energy              =     -55.79669640 Ry
     estimated scf accuracy    <          8.8E-09 Ry

     total magnetization       =     2.24 Bohr mag/cell
     absolute magnetization    =     2.35 Bohr mag/cell

     iteration # 10     ecut=    30.00 Ry     beta= 0.50
     Davidson diagonalization with overlap
     ethr =  1.10E-10,  avg # of iterations =  4.0

     total cpu time spent up to now is        4.1 secs

     total energy              =     -55.79669650 Ry
     estimated scf accuracy    <          1.5E-09 Ry

     total magnetization       =     2.24 Bohr mag/cell
     absolute magnetization    =     2.35 Bohr mag/cell

     iteration # 11     ecut=    30.00 Ry     beta= 0.50
     Davidson diagonalization with overlap
     ethr =  1.92E-11,  avg # of iterations =  3.8

     Magnetic moment per site  (integrated on atomic sphere of radius R)
     atom   1 (R=0.413)  charge=  6.1774  magn=  2.2665

     total cpu time spent up to now is        4.1 secs

     End of self-consistent calculation

 ------ SPIN UP ------------


          k = 0.0000 0.0000 0.0000 (   177 PWs)   bands (ev):

     4.8991  10.8607  10.8607  10.8607  11.9518  11.9518  37.7022  37.7022

          k = 0.1640 0.1640 0.0000 (   186 PWs)   bands (ev):

     6.4286  10.4832  10.7440  11.6597  11.7794  11.9927  31.1035  35.1570

          k = 0.3279 0.3279 0.0000 (   184 PWs)   bands (ev):

     8.2943   9.9111  11.9071  12.1070  12.5504  13.1664  22.4269  31.7611

          k = 0.3279 0.1640 0.1640 (   182 PWs)   bands (ev):

     8.5580  10.0531  10.4001  11.7862  12.2377  13.5381  26.8952  27.7350

          k = 0.4919 0.3279 0.1640 (   189 PWs)   bands (ev):

     9.0126   9.9046  10.8704  12.0433  12.5458  17.0148  20.5627  25.7574

          k = 0.3279 0.3279 0.3279 (   183 PWs)   bands (ev):

     9.8147   9.8147  10.1526  12.1424  12.1424  17.4461  24.1171  24.1171

          k = 0.0000 0.0000 0.3279 (   185 PWs)   bands (ev):

     7.7040  10.6927  11.0548  11.0548  11.6444  12.5717  31.4888  32.3745

          k =-0.0000-0.1640 0.4919 (   186 PWs)   bands (ev):

     8.9834   9.8983  10.8296  11.6674  13.0511  15.2550  23.3141  28.7840

          k =-0.6558-0.1640-0.1640 (   191 PWs)   bands (ev):

     9.2570   9.2570  10.8163  12.7249  12.7249  20.6945  20.6945  22.6173

          k = 0.0000 0.0000 0.6558 (   188 PWs)   bands (ev):

     8.6704   8.6811  12.6264  12.6264  12.9666  19.2345  24.5213  24.5213

 ------ SPIN DOWN ----------


          k = 0.0000 0.0000 0.0000 (   177 PWs)   bands (ev):

     5.0330  12.9502  12.9502  12.9502  15.0606  15.0606  37.4752  37.4752

          k = 0.1640 0.1640 0.0000 (   186 PWs)   bands (ev):

     6.5980  12.4881  12.7640  13.8353  14.7264  15.1109  31.6315  35.2610

          k = 0.3279 0.3279 0.0000 (   184 PWs)   bands (ev):

     9.4208  11.8006  13.1200  14.8468  15.2747  15.5497  23.5708  31.8452

          k = 0.3279 0.1640 0.1640 (   182 PWs)   bands (ev):

     9.0997  11.9995  12.1696  14.5853  15.2277  15.7258  27.6763  28.3630

          k = 0.4919 0.3279 0.1640 (   189 PWs)   bands (ev):

    10.5302  11.7184  12.4299  14.8510  15.3285  18.3284  21.8649  26.4224

          k = 0.3279 0.3279 0.3279 (   183 PWs)   bands (ev):

    11.2657  11.4783  11.4783  15.2817  15.2817  18.8776  24.9349  24.9349

          k = 0.0000 0.0000 0.3279 (   185 PWs)   bands (ev):

     7.9941  13.0733  13.0733  13.3812  13.8302  15.5999  32.0391  32.9550

          k =-0.0000-0.1640 0.4919 (   186 PWs)   bands (ev):

    10.3949  11.9285  12.8024  14.0216  15.4157  17.0067  24.2969  29.3353

          k =-0.6558-0.1640-0.1640 (   191 PWs)   bands (ev):

    11.2646  11.2646  12.6764  15.0642  15.0642  21.7323  21.7323  23.4019

          k = 0.0000 0.0000 0.6558 (   188 PWs)   bands (ev):

    10.6298  10.8310  14.8458  14.8458  15.3313  20.0608  24.9087  24.9087

     the Fermi energy is    13.1102 ev

!    total energy              =     -55.79669660 Ry
     estimated scf accuracy    <          3.0E-10 Ry
     smearing contrib. (-TS)   =      -0.00030685 Ry
     internal energy E=F+TS    =     -55.79638975 Ry

     The total energy is F=E-TS. E is the sum of the following terms:
     one-electron contribution =       7.24699534 Ry
     hartree contribution      =       6.59499440 Ry
     xc contribution           =     -26.42716548 Ry
     ewald contribution        =     -43.21121402 Ry

     total magnetization       =     2.24 Bohr mag/cell
     absolute magnetization    =     2.35 Bohr mag/cell

     convergence has been achieved in  11 iterations

     Forces acting on atoms (cartesian axes, Ry/au):

     atom    1 type  1   force =     0.00000000    0.00000000    0.00000000

     Total force =     0.000000     Total SCF correction =     0.000000


     Computing stress (Cartesian axis) and pressure

          total   stress  (Ry/bohr**3)                   (kbar)     P=      -23.63
  -0.00016063   0.00000000   0.00000000          -23.63        0.00        0.00
  -0.00000000  -0.00016063   0.00000000           -0.00      -23.63        0.00
   0.00000000   0.00000000  -0.00016063            0.00        0.00      -23.63

     Energy error            =      1.5E-04 Ry
     Gradient error          =      0.0E+00 Ry/Bohr
     Cell gradient error     =      2.4E+01 kbar

     number of scf cycles    =   5
     number of bfgs steps    =   4

     enthalpy           old  =     -55.7965454424 Ry
     enthalpy           new  =     -55.7966966026 Ry

     CASE: enthalpy          _new < enthalpy          _old


     WARNING: bfgs curvature condition failed, Theta= 0.105
     new trust radius        =       0.0129927492 bohr
     new conv_thr            =       0.0000000010 Ry

     new unit-cell volume =     76.58604 a.u.^3 (    11.34888 Ang^3 )
     density =      8.17110 g/cm^3

CELL_PARAMETERS (angstrom)
  -1.415677542   1.415677542   1.415677542
   1.415677542  -1.415677542   1.415677542
   1.415677542   1.415677542  -1.415677542

ATOMIC_POSITIONS (angstrom)
Fe               0.0000000000        0.0000000000        0.0000000000


     Message from routine punch:
     Nothing written, as per user request (disk_io='none')
     NEW-OLD atomic charge density approx. for the potential
     New effective cutoffs (rho, wfc):  270.29   27.25

     Check: negative core charge=   -0.000003
     Generating pointlists ...

     total cpu time spent up to now is        4.3 secs

     Self-consistent Calculation

     iteration #  1     ecut=    30.00 Ry     beta= 0.50
     Davidson diagonalization with overlap
     ethr =  1.00E-06,  avg # of iterations =  4.3

     total cpu time spent up to now is        4.3 secs

     total energy              =     -55.79675957 Ry
     estimated scf accuracy    <       0.00006330 Ry

     total magnetization       =     2.20 Bohr mag/cell
     absolute magnetization    =     2.31 Bohr mag/cell

     iteration #  2     ecut=    30.00 Ry     beta= 0.50
     Davidson diagonalization with overlap
     ethr =  7.91E-07,  avg # of iterations =  1.0

     total cpu time spent up to now is        4.4 secs

     total energy              =     -55.79678652 Ry
     estimated scf accuracy    <       0.00003062 Ry

     total magnetization       =     2.19 Bohr mag/cell
     absolute magnetization    =     2.30 Bohr mag/cell

     iteration #  3     ecut=    30.00 Ry     beta= 0.50
     Davidson diagonalization with overlap
     ethr =  3.83E-07,  avg # of iterations =  1.1

     total cpu time spent up to now is        4.4 secs

     total energy              =     -55.79680264 Ry
     estimated scf accuracy    <       0.00002308 Ry

     total magnetization       =     2.17 Bohr mag/cell
     absolute magnetization    =     2.28 Bohr mag/cell

     iteration #  4     ecut=    30.00 Ry     beta= 0.50
     Davidson diagonalization with overlap
     ethr =  2.88E-07,  avg # of iterations =  1.5

     total cpu time spent up to now is        4.5 secs

     total energy              =     -55.79681716 Ry
     estimated scf accuracy    <       0.00000086 Ry

     total magnetization       =     2.16 Bohr mag/cell
     absolute magnetization    =     2.27 Bohr mag/cell

     iteration #  5     ecut=    30.00 Ry     beta= 0.50
     Davidson diagonalization with overlap
     ethr =  1.07E-08,  avg # of iterations =  2.2

     total cpu time spent up to now is        4.5 secs

     total energy              =     -55.79681776 Ry
     estimated scf accuracy    <       0.00000014 Ry

     total magnetization       =     2.16 Bohr mag/cell
     absolute magnetization    =     2.26 Bohr mag/cell

     iteration #  6     ecut=    30.00 Ry     beta= 0.50
     Davidson diagonalization with overlap
     ethr =  1.80E-09,  avg # of iterations =  2.6

     total cpu time spent up to now is        4.6 secs

     total energy              =     -55.79681809 Ry
     estimated scf accuracy    <          5.1E-09 Ry

     total magnetization       =     2.16 Bohr mag/cell
     absolute magnetization    =     2.26 Bohr mag/cell

     iteration #  7     ecut=    30.00 Ry     beta= 0.50
     Davidson diagonalization with overlap
     ethr =  6.38E-11,  avg # of iterations =  4.3

     total cpu time spent up to now is        4.7 secs

     total energy              =     -55.79681813 Ry
     estimated scf accuracy    <          1.0E-09 Ry

     total magnetization       =     2.16 Bohr mag/cell
     absolute magnetization    =     2.26 Bohr mag/cell

     iteration #  8     ecut=    30.00 Ry     beta= 0.50
     Davidson diagonalization with overlap
     ethr =  1.27E-11,  avg # of iterations =  2.8

     Magnetic moment per site  (integrated on atomic sphere of radius R)
     atom   1 (R=0.413)  charge=  6.1959  magn=  2.1858

     total cpu time spent up to now is        4.7 secs

     End of self-consistent calculation

 ------ SPIN UP ------------


          k = 0.0000 0.0000 0.0000 (   177 PWs)   bands (ev):

     5.1680  11.2189  11.2189  11.2189  12.3369  12.3369  38.3041  38.3041

          k = 0.1652 0.1652 0.0000 (   186 PWs)   bands (ev):

     6.7214  10.8275  11.0947  12.0442  12.1602  12.3796  31.7479  35.7819

          k = 0.3303 0.3303 0.0000 (   184 PWs)   bands (ev):

     8.5793  10.2354  12.2928  12.4992  12.9427  13.6023  23.0279  32.3471

          k = 0.3303 0.1652 0.1652 (   182 PWs)   bands (ev):

     8.8692  10.3773  10.7421  12.1691  12.6361  13.9784  27.5022  28.3897

          k = 0.4955 0.3303 0.1652 (   189 PWs)   bands (ev):

     9.3099  10.2278  11.2194  12.4364  12.9562  17.4970  21.1466  26.3742

          k = 0.3303 0.3303 0.3303 (   183 PWs)   bands (ev):

    10.1357  10.1357  10.4897  12.5368  12.5368  17.9562  24.6939  24.6939

          k = 0.0000 0.0000 0.3303 (   185 PWs)   bands (ev):

     8.0109  11.0301  11.4177  11.4177  12.0278  12.9816  32.0849  33.0822

          k = 0.0000-0.1652 0.4955 (   186 PWs)   bands (ev):

     9.2782  10.2129  11.1842  12.0485  13.4827  15.7187  23.9147  29.4504

          k =-0.6607-0.1652-0.1652 (   191 PWs)   bands (ev):

     9.5499   9.5499  11.1711  13.1439  13.1439  21.2349  21.2349  23.2271

          k = 0.0000 0.0000 0.6607 (   188 PWs)   bands (ev):

     8.9446   8.9522  13.0420  13.0420  13.3951  19.7548  25.1110  25.1110

 ------ SPIN DOWN ----------


          k = 0.0000 0.0000 0.0000 (   177 PWs)   bands (ev):

     5.2945  13.2083  13.2083  13.2083  15.3878  15.3878  38.0817  38.0817

          k = 0.1652 0.1652 0.0000 (   186 PWs)   bands (ev):

     6.8837  12.7350  13.0240  14.1169  15.0430  15.4394  32.2580  35.8848

          k = 0.3303 0.3303 0.0000 (   184 PWs)   bands (ev):

     9.6754  12.0318  13.4672  15.1649  15.6081  15.8758  24.1323  32.4321

          k = 0.3303 0.1652 0.1652 (   182 PWs)   bands (ev):

     9.4001  12.2475  12.4197  14.8958  15.5549  16.0747  28.2617  28.9911

          k = 0.4955 0.3303 0.1652 (   189 PWs)   bands (ev):

    10.7703  11.9566  12.7364  15.1690  15.6594  18.7601  22.3995  27.0137

          k = 0.3303 0.3303 0.3303 (   183 PWs)   bands (ev):

    11.5531  11.7203  11.7203  15.6147  15.6147  19.3203  25.4806  25.4806

          k = 0.0000 0.0000 0.3303 (   185 PWs)   bands (ev):

     8.2963  13.3388  13.3388  13.6630  14.1101  15.9490  32.6362  33.6319

          k = 0.0000-0.1652 0.4955 (   186 PWs)   bands (ev):

    10.6639  12.1957  13.0614  14.3168  15.7381  17.4222  24.8664  29.9739

          k =-0.6607-0.1652-0.1652 (   191 PWs)   bands (ev):

    11.5136  11.5136  12.9418  15.3819  15.3819  22.2460  22.2460  23.9756

          k = 0.0000 0.0000 0.6607 (   188 PWs)   bands (ev):

    10.8635  11.0546  15.1577  15.1577  15.6508  20.5586  25.4766  25.4766

     the Fermi energy is    13.4951 ev

!    total energy              =     -55.79681814 Ry
     estimated scf accuracy    <          6.4E-11 Ry
     smearing contrib. (-TS)   =      -0.00032991 Ry
     internal energy E=F+TS    =     -55.79648823 Ry

     The total energy is F=E-TS. E is the sum of the following terms:
     one-electron contribution =       7.70011619 Ry
     hartree contribution      =       6.46392443 Ry
     xc contribution           =     -26.42972525 Ry
     ewald contribution        =     -43.53080359 Ry

     total magnetization       =     2.16 Bohr mag/cell
     absolute magnetization    =     2.26 Bohr mag/cell

     convergence has been achieved in   8 iterations

     Forces acting on atoms (cartesian axes, Ry/au):

     atom    1 type  1   force =     0.00000000    0.00000000    0.00000000

     Total force =     0.000000     Total SCF correction =     0.000000


     Computing stress (Cartesian axis) and pressure

          total   stress  (Ry/bohr**3)                   (kbar)     P=        6.00
   0.00004079  -0.00000000  -0.00000000            6.00       -0.00       -0.00
  -0.00000000   0.00004079   0.00000000           -0.00        6.00        0.00
   0.00000000   0.00000000   0.00004079            0.00        0.00        6.00

     Energy error            =      1.2E-04 Ry
     Gradient error          =      0.0E+00 Ry/Bohr
     Cell gradient error     =      6.0E+00 kbar

     number of scf cycles    =   6
     number of bfgs steps    =   5

     enthalpy           old  =     -55.7966966026 Ry
     enthalpy           new  =     -55.7968181382 Ry

     CASE: enthalpy          _new < enthalpy          _old

     new trust radius        =       0.0025907330 bohr
     new conv_thr            =       0.0000000010 Ry

     new unit-cell volume =     76.92663 a.u.^3 (    11.39935 Ang^3 )
     density =      8.13492 g/cm^3

CELL_PARAMETERS (angstrom)
  -1.417773015   1.417773015   1.417773015
   1.417773015  -1.417773015   1.417773015
   1.417773015   1.417773015  -1.417773015

ATOMIC_POSITIONS (angstrom)
Fe               0.0000000000        0.0000000000        0.0000000000


     Message from routine punch:
     Nothing written, as per user request (disk_io='none')
     NEW-OLD atomic charge density approx. for the potential
     New effective cutoffs (rho, wfc):  269.49   27.17

     Check: negative core charge=   -0.000003
     Generating pointlists ...

     total cpu time spent up to now is        4.9 secs

     Self-consistent Calculation

     iteration #  1     ecut=    30.00 Ry     beta= 0.50
     Davidson diagonalization with overlap
     ethr =  1.00E-06,  avg # of iterations =  2.9

     Threshold (ethr) on eigenvalues was too large:
     Diagonalizing with lowered threshold

     Davidson diagonalization with overlap
     ethr =  2.25E-08,  avg # of iterations =  1.6

     total cpu time spent up to now is        5.0 secs

     total energy              =     -55.79682236 Ry
     estimated scf accuracy    <       0.00000193 Ry

     total magnetization       =     2.16 Bohr mag/cell
     absolute magnetization    =     2.27 Bohr mag/cell

     iteration #  2     ecut=    30.00 Ry     beta= 0.50
     Davidson diagonalization with overlap
     ethr =  2.41E-08,  avg # of iterations =  1.0

     total cpu time spent up to now is        5.0 secs

     total energy              =     -55.79682295 Ry
     estimated scf accuracy    <       0.00000075 Ry

     total magnetization       =     2.16 Bohr mag/cell
     absolute magnetization    =     2.27 Bohr mag/cell

     iteration #  3     ecut=    30.00 Ry     beta= 0.50
     Davidson diagonalization with overlap
     ethr =  9.32E-09,  avg # of iterations =  1.1

     total cpu time spent up to now is        5.1 secs

     total energy              =     -55.79682324 Ry
     estimated scf accuracy    <       0.00000057 Ry

     total magnetization       =     2.17 Bohr mag/cell
     absolute magnetization    =     2.27 Bohr mag/cell

     iteration #  4     ecut=    30.00 Ry     beta= 0.50
     Davidson diagonalization with overlap
     ethr =  7.13E-09,  avg # of iterations =  1.4

     total cpu time spent up to now is        5.1 secs

     total energy              =     -55.79682344 Ry
     estimated scf accuracy    <       0.00000003 Ry

     total magnetization       =     2.17 Bohr mag/cell
     absolute magnetization    =     2.27 Bohr mag/cell

     iteration #  5     ecut=    30.00 Ry     beta= 0.50
     Davidson diagonalization with overlap
     ethr =  3.29E-10,  avg # of iterations =  2.5

     Magnetic moment per site  (integrated on atomic sphere of radius R)
     atom   1 (R=0.413)  charge=  6.1920  magn=  2.1971

     total cpu time spent up to now is        5.2 secs

     End of self-consistent calculation

 ------ SPIN UP ------------


          k = 0.0000 0.0000 0.0000 (   177 PWs)   bands (ev):

     5.1136  11.1485  11.1485  11.1485  12.2584  12.2584  38.1827  38.1827

          k = 0.1649 0.1649 0.0000 (   186 PWs)   bands (ev):

     6.6622  10.7598  11.0252  11.9685  12.0831  12.3007  31.6179  35.6555

          k = 0.3299 0.3299 0.0000 (   184 PWs)   bands (ev):

     8.5224  10.1718  12.2147  12.4193  12.8640  13.5162  22.9068  32.2285

          k = 0.3299 0.1649 0.1649 (   182 PWs)   bands (ev):

     8.8067  10.3127  10.6746  12.0921  12.5553  13.8908  27.3796  28.2578

          k = 0.4948 0.3299 0.1649 (   189 PWs)   bands (ev):

     9.2507  10.1641  11.1490  12.3573  12.8740  17.3999  21.0291  26.2498

          k = 0.3299 0.3299 0.3299 (   183 PWs)   bands (ev):

    10.0723  10.0723  10.4227  12.4566  12.4566  17.8539  24.5776  24.5776

          k = 0.0000 0.0000 0.3299 (   185 PWs)   bands (ev):

     7.9488  10.9614  11.3463  11.3463  11.9523  12.8982  31.9639  32.9398

          k = 0.0000-0.1649 0.4948 (   186 PWs)   bands (ev):

     9.2187  10.1489  11.1144  11.9726  13.3975  15.6249  23.7936  29.3163

          k =-0.6597-0.1649-0.1649 (   191 PWs)   bands (ev):

     9.4904   9.4904  11.1012  13.0609  13.0609  21.1257  21.1257  23.1044

          k = 0.0000 0.0000 0.6597 (   188 PWs)   bands (ev):

     8.8888   8.8970  12.9599  12.9599  13.3105  19.6497  24.9924  24.9924

 ------ SPIN DOWN ----------


          k = 0.0000 0.0000 0.0000 (   177 PWs)   bands (ev):

     5.2411  13.1507  13.1507  13.1507  15.3191  15.3191  37.9594  37.9594

          k = 0.1649 0.1649 0.0000 (   186 PWs)   bands (ev):

     6.8254  12.6799  12.9666  14.0543  14.9762  15.3703  32.1304  35.7591

          k = 0.3299 0.3299 0.0000 (   184 PWs)   bands (ev):

     9.6221  11.9802  13.3953  15.0969  15.5379  15.8037  24.0161  32.3141

          k = 0.3299 0.1649 0.1649 (   182 PWs)   bands (ev):

     9.3384  12.1935  12.3645  14.8297  15.4848  15.9997  28.1417  28.8627

          k = 0.4948 0.3299 0.1649 (   189 PWs)   bands (ev):

    10.7190  11.9041  12.6723  15.1011  15.5887  18.6694  22.2883  26.8927

          k = 0.3299 0.3299 0.3299 (   183 PWs)   bands (ev):

    11.4925  11.6673  11.6673  15.5445  15.5445  19.2267  25.3682  25.3682

          k = 0.0000 0.0000 0.3299 (   185 PWs)   bands (ev):

     8.2346  13.2799  13.2799  13.6040  14.0478  15.8757  32.5152  33.4931

          k = 0.0000-0.1649 0.4948 (   186 PWs)   bands (ev):

    10.6081  12.1400  13.0039  14.2529  15.6668  17.3358  24.7490  29.8428

          k =-0.6597-0.1649-0.1649 (   191 PWs)   bands (ev):

    11.4617  11.4617  12.8834  15.3122  15.3122  22.1401  22.1401  23.8575

          k = 0.0000 0.0000 0.6597 (   188 PWs)   bands (ev):

    10.8150  11.0080  15.0889  15.0889  15.5801  20.4565  25.3602  25.3602

     the Fermi energy is    13.4164 ev

!    total energy              =     -55.79682350 Ry
     estimated scf accuracy    <          8.4E-10 Ry
     smearing contrib. (-TS)   =      -0.00032358 Ry
     internal energy E=F+TS    =     -55.79649993 Ry

     The total energy is F=E-TS. E is the sum of the following terms:
     one-electron contribution =       7.60881743 Ry
     hartree contribution      =       6.48963671 Ry
     xc contribution           =     -26.42848916 Ry
     ewald contribution        =     -43.46646491 Ry

     total magnetization       =     2.17 Bohr mag/cell
     absolute magnetization    =     2.27 Bohr mag/cell

     convergence has been achieved in   5 iterations

     Forces acting on atoms (cartesian axes, Ry/au):

     atom    1 type  1   force =     0.00000000    0.00000000    0.00000000

     Total force =     0.000000     Total SCF correction =     0.000000


     Computing stress (Cartesian axis) and pressure

          total   stress  (Ry/bohr**3)                   (kbar)     P=       -0.88
  -0.00000599   0.00000000  -0.00000000           -0.88        0.00       -0.00
   0.00000000  -0.00000599  -0.00000000            0.00       -0.88       -0.00
  -0.00000000  -0.00000000  -0.00000599           -0.00       -0.00       -0.88

     Energy error            =      5.4E-06 Ry
     Gradient error          =      0.0E+00 Ry/Bohr
     Cell gradient error     =      8.8E-01 kbar

     number of scf cycles    =   7
     number of bfgs steps    =   6

     enthalpy           old  =     -55.7968181382 Ry
     enthalpy           new  =     -55.7968235031 Ry

     CASE: enthalpy          _new < enthalpy          _old

     new trust radius        =       0.0003328216 bohr
     new conv_thr            =       0.0000000010 Ry

     new unit-cell volume =     76.88285 a.u.^3 (    11.39286 Ang^3 )
     density =      8.13955 g/cm^3

CELL_PARAMETERS (angstrom)
  -1.417504017   1.417504017   1.417504017
   1.417504017  -1.417504017   1.417504017
   1.417504017   1.417504017  -1.417504017

ATOMIC_POSITIONS (angstrom)
Fe               0.0000000000        0.0000000000        0.0000000000


     Message from routine punch:
     Nothing written, as per user request (disk_io='none')
     NEW-OLD atomic charge density approx. for the potential
     New effective cutoffs (rho, wfc):  269.59   27.18

     Check: negative core charge=   -0.000003
     Generating pointlists ...

     total cpu time spent up to now is        5.3 secs

     Self-consistent Calculation

     iteration #  1     ecut=    30.00 Ry     beta= 0.50
     Davidson diagonalization with overlap
     ethr =  1.00E-06,  avg # of iterations =  2.0

     Threshold (ethr) on eigenvalues was too large:
     Diagonalizing with lowered threshold

     Davidson diagonalization with overlap
     ethr =  5.69E-10,  avg # of iterations =  2.0

     total cpu time spent up to now is        5.4 secs

     total energy              =     -55.79682372 Ry
     estimated scf accuracy    <       0.00000004 Ry

     total magnetization       =     2.17 Bohr mag/cell
     absolute magnetization    =     2.27 Bohr mag/cell

     iteration #  2     ecut=    30.00 Ry     beta= 0.50
     Davidson diagonalization with overlap
     ethr =  5.25E-10,  avg # of iterations =  1.2

     total cpu time spent up to now is        5.5 secs

     total energy              =     -55.79682373 Ry
     estimated scf accuracy    <       0.00000001 Ry

     total magnetization       =     2.17 Bohr mag/cell
     absolute magnetization    =     2.27 Bohr mag/cell

     iteration #  3     ecut=    30.00 Ry     beta= 0.50
     Davidson diagonalization with overlap
     ethr =  1.67E-10,  avg # of iterations =  1.1

     total cpu time spent up to now is        5.5 secs

     total energy              =     -55.79682374 Ry
     estimated scf accuracy    <       0.00000001 Ry

     total magnetization       =     2.17 Bohr mag/cell
     absolute magnetization    =     2.27 Bohr mag/cell

     iteration #  4     ecut=    30.00 Ry     beta= 0.50
     Davidson diagonalization with overlap
     ethr =  1.66E-10,  avg # of iterations =  1.4

     Magnetic moment per site  (integrated on atomic sphere of radius R)
     atom   1 (R=0.413)  charge=  6.1925  magn=  2.1958

     total cpu time spent up to now is        5.6 secs

     End of self-consistent calculation

 ------ SPIN UP ------------


          k = 0.0000 0.0000 0.0000 (   177 PWs)   bands (ev):

     5.1206  11.1575  11.1575  11.1575  12.2686  12.2686  38.1982  38.1982

          k = 0.1650 0.1650 0.0000 (   186 PWs)   bands (ev):

     6.6698  10.7685  11.0341  11.9782  12.0931  12.3110  31.6345  35.6717

          k = 0.3299 0.3299 0.0000 (   184 PWs)   bands (ev):

     8.5297  10.1799  12.2248  12.4296  12.8740  13.5272  22.9223  32.2437

          k = 0.3299 0.1650 0.1650 (   182 PWs)   bands (ev):

     8.8147  10.3210  10.6832  12.1020  12.5658  13.9020  27.3953  28.2747

          k = 0.4949 0.3299 0.1650 (   189 PWs)   bands (ev):

     9.2583  10.1722  11.1581  12.3675  12.8845  17.4124  21.0442  26.2657

          k = 0.3299 0.3299 0.3299 (   183 PWs)   bands (ev):

    10.0804  10.0804  10.4312  12.4670  12.4670  17.8670  24.5925  24.5925

          k = 0.0000 0.0000 0.3299 (   185 PWs)   bands (ev):

     7.9567  10.9703  11.3554  11.3554  11.9619  12.9090  31.9795  32.9580

          k = 0.0000-0.1650 0.4949 (   186 PWs)   bands (ev):

     9.2264  10.1572  11.1233  11.9823  13.4084  15.6370  23.8091  29.3335

          k =-0.6598-0.1650-0.1650 (   191 PWs)   bands (ev):

     9.4981   9.4981  11.1101  13.0715  13.0715  21.1397  21.1397  23.1201

          k = 0.0000 0.0000 0.6598 (   188 PWs)   bands (ev):

     8.8960   8.9042  12.9704  12.9704  13.3213  19.6631  25.0075  25.0075

 ------ SPIN DOWN ----------


          k = 0.0000 0.0000 0.0000 (   177 PWs)   bands (ev):

     5.2480  13.1584  13.1584  13.1584  15.3280  15.3280  37.9751  37.9751

          k = 0.1650 0.1650 0.0000 (   186 PWs)   bands (ev):

     6.8329  12.6873  12.9742  14.0627  14.9849  15.3793  32.1468  35.7752

          k = 0.3299 0.3299 0.0000 (   184 PWs)   bands (ev):

     9.6290  11.9871  13.4046  15.1058  15.5471  15.8133  24.0312  32.3292

          k = 0.3299 0.1650 0.1650 (   182 PWs)   bands (ev):

     9.3464  12.2006  12.3718  14.8383  15.4940  16.0096  28.1572  28.8792

          k = 0.4949 0.3299 0.1650 (   189 PWs)   bands (ev):

    10.7257  11.9111  12.6806  15.1100  15.5980  18.6812  22.3027  26.9082

          k = 0.3299 0.3299 0.3299 (   183 PWs)   bands (ev):

    11.5004  11.6744  11.6744  15.5536  15.5536  19.2389  25.3827  25.3827

          k = 0.0000 0.0000 0.3299 (   185 PWs)   bands (ev):

     8.2425  13.2878  13.2878  13.6116  14.0562  15.8852  32.5307  33.5110

          k = 0.0000-0.1650 0.4949 (   186 PWs)   bands (ev):

    10.6153  12.1472  13.0116  14.2614  15.6763  17.3470  24.7641  29.8597

          k =-0.6598-0.1650-0.1650 (   191 PWs)   bands (ev):

    11.4684  11.4684  12.8911  15.3214  15.3214  22.1538  22.1538  23.8727

          k = 0.0000 0.0000 0.6598 (   188 PWs)   bands (ev):

    10.8213  11.0140  15.0981  15.0981  15.5895  20.4696  25.3752  25.3752

     the Fermi energy is    13.4265 ev

!    total energy              =     -55.79682374 Ry
     estimated scf accuracy    <          4.7E-10 Ry
     smearing contrib. (-TS)   =      -0.00032457 Ry
     internal energy E=F+TS    =     -55.79649917 Ry

     The total energy is F=E-TS. E is the sum of the following terms:
     one-electron contribution =       7.62056239 Ry
     hartree contribution      =       6.48628560 Ry
     xc contribution           =     -26.42863365 Ry
     ewald contribution        =     -43.47471350 Ry

     total magnetization       =     2.17 Bohr mag/cell
     absolute magnetization    =     2.27 Bohr mag/cell

     convergence has been achieved in   4 iterations

     Forces acting on atoms (cartesian axes, Ry/au):

     atom    1 type  1   force =     0.00000000    0.00000000    0.00000000

     Total force =     0.000000     Total SCF correction =     0.000000


     Computing stress (Cartesian axis) and pressure

          total   stress  (Ry/bohr**3)                   (kbar)     P=       -0.41
  -0.00000278  -0.00000000   0.00000000           -0.41       -0.00        0.00
   0.00000000  -0.00000278   0.00000000            0.00       -0.41        0.00
  -0.00000000  -0.00000000  -0.00000278           -0.00       -0.00       -0.41

     Energy error            =      2.4E-07 Ry
     Gradient error          =      0.0E+00 Ry/Bohr
     Cell gradient error     =      4.1E-01 kbar

     bfgs converged in   8 scf cycles and   7 bfgs steps
     (criteria: energy <  1.0E-04 Ry, force <  1.0E-03 Ry/Bohr, cell <  5.0E-01 kbar)

     End of BFGS Geometry Optimization

     Final enthalpy           =     -55.7968237434 Ry

     File /home/bond/Work/Lab4/1A/Fe_bcc_nk_5_relax/pwscf.bfgs deleted, as requested
Begin final coordinates
     new unit-cell volume =     76.88285 a.u.^3 (    11.39286 Ang^3 )
     density =      8.13955 g/cm^3

CELL_PARAMETERS (angstrom)
  -1.417504017   1.417504017   1.417504017
   1.417504017  -1.417504017   1.417504017
   1.417504017   1.417504017  -1.417504017

ATOMIC_POSITIONS (angstrom)
Fe               0.0000000000        0.0000000000        0.0000000000
End final coordinates


     Message from routine punch:
     Nothing written, as per user request (disk_io='none')

     Final scf calculation at the relaxed structure.
     The G-vectors are recalculated for the final unit cell
     Results may differ from those at the preceding step.

     Parallelization info
     --------------------
     sticks:   dense  smooth     PW     G-vecs:    dense   smooth      PW
     Min         241      98     33                 3408      860     184
     Max         242      99     34                 3411      861     185
     Sum         483     197     67                 6819     1721     369

     Using Slab Decomposition



     bravais-lattice index     =            0
     lattice parameter (alat)  =       4.4187  a.u.
     unit-cell volume          =      76.8829 (a.u.)^3
     number of atoms/cell      =            1
     number of atomic types    =            1
     number of electrons       =         8.00
     number of Kohn-Sham states=            8
     kinetic-energy cutoff     =      30.0000  Ry
     charge density cutoff     =     300.0000  Ry
     scf convergence threshold =      1.0E-09
     mixing beta               =       0.5000
     number of iterations used =            8  plain     mixing
     press convergence thresh. =      5.0E-01
     Exchange-correlation=  SLA  PW   PBE  PBE
                           (   1   4   3   4   0   0   0)

     celldm(1)=   4.418687  celldm(2)=   0.000000  celldm(3)=   0.000000
     celldm(4)=   0.000000  celldm(5)=   0.000000  celldm(6)=   0.000000

     crystal axes: (cart. coord. in units of alat)
               a(1) = (  -0.606220   0.606220   0.606220 )  
               a(2) = (   0.606220  -0.606220   0.606220 )  
               a(3) = (   0.606220   0.606220  -0.606220 )  

     reciprocal axes: (cart. coord. in units 2 pi/alat)
               b(1) = (  0.000000  0.824784  0.824784 )  
               b(2) = (  0.824784  0.000000  0.824784 )  
               b(3) = (  0.824784  0.824784  0.000000 )  


     PseudoPot. # 1 for Fe read from file:
     /home/bond/Software/QE/qe-7.4.1/pseudo/Fe.pbe-nd-rrkjus.UPF
     MD5 check sum: 398036227a04b607635f6f5e8dfd8242
     Pseudo is Ultrasoft + core correction, Zval =  8.0
     Generated by new atomic code, or converted to UPF format
     Using radial grid of  957 points,  6 beta functions with: 
                l(1) =   0
                l(2) =   0
                l(3) =   1
                l(4) =   1
                l(5) =   2
                l(6) =   2
     Q(r) pseudized with 0 coefficients 


     atomic species   valence    mass     pseudopotential
     Fe                8.00    55.84500     Fe( 1.00)

     Starting magnetic structure 
     atomic species   magnetization
     Fe              0.355

     48 Sym. Ops., with inversion, found



   Cartesian axes

     site n.     atom                  positions (alat units)
         1        Fe     tau(   1) = (   0.0000000   0.0000000   0.0000000  )

     number of k points=    10  Methfessel-Paxton smearing, width (Ry)=  0.0200
                       cart. coord. in units 2pi/alat
        k(    1) = (   0.0000000   0.0000000   0.0000000), wk =   0.0080000
        k(    2) = (   0.1649568   0.1649568   0.0000000), wk =   0.0960000
        k(    3) = (   0.3299135   0.3299135   0.0000000), wk =   0.0960000
        k(    4) = (   0.3299135   0.1649568   0.1649568), wk =   0.1920000
        k(    5) = (   0.4948703   0.3299135   0.1649568), wk =   0.1920000
        k(    6) = (   0.3299135   0.3299135   0.3299135), wk =   0.0640000
        k(    7) = (   0.0000000   0.0000000   0.3299135), wk =   0.0480000
        k(    8) = (   0.0000000  -0.1649568   0.4948703), wk =   0.1920000
        k(    9) = (  -0.6598270  -0.1649568  -0.1649568), wk =   0.0640000
        k(   10) = (   0.0000000   0.0000000   0.6598270), wk =   0.0480000

     Dense  grid:     6819 G-vectors     FFT dimensions: (  25,  25,  25)

     Smooth grid:     1721 G-vectors     FFT dimensions: (  18,  18,  18)

     Estimated max dynamical RAM per process >      16.95 MB

     Estimated total dynamical RAM >      33.90 MB

     Check: negative core charge=   -0.000004
     Generating pointlists ...

     Initial potential from superposition of free atoms

     starting charge       7.9994, renormalised to       8.0000
     Starting wfcs are    6 randomized atomic wfcs +    2 random wfcs

     total cpu time spent up to now is        5.9 secs

     Self-consistent Calculation

     iteration #  1     ecut=    30.00 Ry     beta= 0.50
     Davidson diagonalization with overlap
     c_bands:  1 eigenvalues not converged
     c_bands:  1 eigenvalues not converged
     c_bands:  1 eigenvalues not converged
     ethr =  1.00E-06,  avg # of iterations = 16.7

     total cpu time spent up to now is        6.1 secs

     total energy              =     -55.66782637 Ry
     estimated scf accuracy    <       0.37069758 Ry

     total magnetization       =     1.98 Bohr mag/cell
     absolute magnetization    =     1.98 Bohr mag/cell

     iteration #  2     ecut=    30.00 Ry     beta= 0.50
     Davidson diagonalization with overlap
     ethr =  4.63E-03,  avg # of iterations =  1.9

     total cpu time spent up to now is        6.1 secs

     total energy              =     -55.77372697 Ry
     estimated scf accuracy    <       0.10059607 Ry

     total magnetization       =     2.35 Bohr mag/cell
     absolute magnetization    =     2.36 Bohr mag/cell

     iteration #  3     ecut=    30.00 Ry     beta= 0.50
     Davidson diagonalization with overlap
     ethr =  1.26E-03,  avg # of iterations =  1.0

     total cpu time spent up to now is        6.2 secs

     total energy              =     -55.79526302 Ry
     estimated scf accuracy    <       0.00176609 Ry

     total magnetization       =     2.21 Bohr mag/cell
     absolute magnetization    =     2.22 Bohr mag/cell

     iteration #  4     ecut=    30.00 Ry     beta= 0.50
     Davidson diagonalization with overlap
     ethr =  2.21E-05,  avg # of iterations =  2.0

     total cpu time spent up to now is        6.3 secs

     total energy              =     -55.79701665 Ry
     estimated scf accuracy    <       0.00075027 Ry

     total magnetization       =     2.13 Bohr mag/cell
     absolute magnetization    =     2.22 Bohr mag/cell

     iteration #  5     ecut=    30.00 Ry     beta= 0.50
     Davidson diagonalization with overlap
     ethr =  9.38E-06,  avg # of iterations =  1.6

     total cpu time spent up to now is        6.4 secs

     total energy              =     -55.79732321 Ry
     estimated scf accuracy    <       0.00016012 Ry

     total magnetization       =     2.16 Bohr mag/cell
     absolute magnetization    =     2.26 Bohr mag/cell

     iteration #  6     ecut=    30.00 Ry     beta= 0.50
     Davidson diagonalization with overlap
     ethr =  2.00E-06,  avg # of iterations =  1.9

     total cpu time spent up to now is        6.4 secs

     total energy              =     -55.79731389 Ry
     estimated scf accuracy    <       0.00009864 Ry

     total magnetization       =     2.16 Bohr mag/cell
     absolute magnetization    =     2.26 Bohr mag/cell

     iteration #  7     ecut=    30.00 Ry     beta= 0.50
     Davidson diagonalization with overlap
     ethr =  1.23E-06,  avg # of iterations =  1.1

     total cpu time spent up to now is        6.5 secs

     total energy              =     -55.79732823 Ry
     estimated scf accuracy    <       0.00000858 Ry

     total magnetization       =     2.16 Bohr mag/cell
     absolute magnetization    =     2.27 Bohr mag/cell

     iteration #  8     ecut=    30.00 Ry     beta= 0.50
     Davidson diagonalization with overlap
     ethr =  1.07E-07,  avg # of iterations =  3.4

     total cpu time spent up to now is        6.6 secs

     total energy              =     -55.79733243 Ry
     estimated scf accuracy    <       0.00000040 Ry

     total magnetization       =     2.16 Bohr mag/cell
     absolute magnetization    =     2.27 Bohr mag/cell

     iteration #  9     ecut=    30.00 Ry     beta= 0.50
     Davidson diagonalization with overlap
     ethr =  4.96E-09,  avg # of iterations =  5.2

     total cpu time spent up to now is        6.7 secs

     total energy              =     -55.79733339 Ry
     estimated scf accuracy    <       0.00000042 Ry

     total magnetization       =     2.17 Bohr mag/cell
     absolute magnetization    =     2.27 Bohr mag/cell

     iteration # 10     ecut=    30.00 Ry     beta= 0.50
     Davidson diagonalization with overlap
     ethr =  4.96E-09,  avg # of iterations =  1.2

     total cpu time spent up to now is        6.8 secs

     total energy              =     -55.79733348 Ry
     estimated scf accuracy    <          2.5E-09 Ry

     total magnetization       =     2.17 Bohr mag/cell
     absolute magnetization    =     2.27 Bohr mag/cell

     iteration # 11     ecut=    30.00 Ry     beta= 0.50
     Davidson diagonalization with overlap
     ethr =  3.14E-11,  avg # of iterations =  6.7

     Magnetic moment per site  (integrated on atomic sphere of radius R)
     atom   1 (R=0.413)  charge=  6.1930  magn=  2.1968

     total cpu time spent up to now is        6.9 secs

     End of self-consistent calculation

 ------ SPIN UP ------------


          k = 0.0000 0.0000 0.0000 (   201 PWs)   bands (ev):

     5.1211  11.1563  11.1563  11.1563  12.2673  12.2673  38.1962  38.1962

          k = 0.1650 0.1650 0.0000 (   213 PWs)   bands (ev):

     6.6702  10.7668  11.0326  11.9763  12.0917  12.3093  31.6322  35.6706

          k = 0.3299 0.3299 0.0000 (   206 PWs)   bands (ev):

     8.5290  10.1784  12.2237  12.4280  12.8737  13.5255  22.9220  32.2439

          k = 0.3299 0.1650 0.1650 (   207 PWs)   bands (ev):

     8.8147  10.3197  10.6821  12.1005  12.5642  13.9007  27.3943  28.2747

          k = 0.4949 0.3299 0.1650 (   213 PWs)   bands (ev):

     9.2575  10.1707  11.1571  12.3659  12.8830  17.4120  21.0439  26.2656

          k = 0.3299 0.3299 0.3299 (   222 PWs)   bands (ev):

    10.0784  10.0784  10.4306  12.4650  12.4650  17.8664  24.5919  24.5919

          k = 0.0000 0.0000 0.3299 (   213 PWs)   bands (ev):

     7.9569  10.9689  11.3538  11.3538  11.9603  12.9075  31.9763  32.9563

          k = 0.0000-0.1650 0.4949 (   215 PWs)   bands (ev):

     9.2255  10.1562  11.1219  11.9806  13.4065  15.6366  23.8087  29.3334

          k =-0.6598-0.1650-0.1650 (   215 PWs)   bands (ev):

     9.4970   9.4970  11.1086  13.0700  13.0700  21.1395  21.1395  23.1202

          k = 0.0000 0.0000 0.6598 (   220 PWs)   bands (ev):

     8.8952   8.9026  12.9688  12.9688  13.3193  19.6635  25.0079  25.0079

 ------ SPIN DOWN ----------


          k = 0.0000 0.0000 0.0000 (   201 PWs)   bands (ev):

     5.2498  13.1582  13.1582  13.1582  15.3270  15.3270  37.9749  37.9749

          k = 0.1650 0.1650 0.0000 (   213 PWs)   bands (ev):

     6.8346  12.6867  12.9736  14.0616  14.9840  15.3780  32.1460  35.7758

          k = 0.3299 0.3299 0.0000 (   206 PWs)   bands (ev):

     9.6299  11.9867  13.4054  15.1051  15.5456  15.8125  24.0318  32.3306

          k = 0.3299 0.1650 0.1650 (   207 PWs)   bands (ev):

     9.3479  12.2002  12.3717  14.8373  15.4928  16.0088  28.1573  28.8804

          k = 0.4949 0.3299 0.1650 (   213 PWs)   bands (ev):

    10.7261  11.9105  12.6812  15.1089  15.5966  18.6813  22.3033  26.9093

          k = 0.3299 0.3299 0.3299 (   222 PWs)   bands (ev):

    11.5012  11.6732  11.6732  15.5516  15.5516  19.2391  25.3831  25.3831

          k = 0.0000 0.0000 0.3299 (   213 PWs)   bands (ev):

     8.2441  13.2871  13.2871  13.6107  14.0553  15.8839  32.5292  33.5105

          k = 0.0000-0.1650 0.4949 (   215 PWs)   bands (ev):

    10.6157  12.1469  13.0112  14.2604  15.6752  17.3469  24.7648  29.8607

          k =-0.6598-0.1650-0.1650 (   215 PWs)   bands (ev):

    11.4682  11.4682  12.8907  15.3208  15.3208  22.1545  22.1545  23.8740

          k = 0.0000 0.0000 0.6598 (   220 PWs)   bands (ev):

    10.8212  11.0130  15.0974  15.0974  15.5881  20.4709  25.3767  25.3767

     the Fermi energy is    13.4254 ev

!    total energy              =     -55.79733350 Ry
     estimated scf accuracy    <          3.1E-10 Ry
     smearing contrib. (-TS)   =      -0.00032497 Ry
     internal energy E=F+TS    =     -55.79700853 Ry

     The total energy is F=E-TS. E is the sum of the following terms:
     one-electron contribution =       7.61985555 Ry
     hartree contribution      =       6.48604859 Ry
     xc contribution           =     -26.42819917 Ry
     ewald contribution        =     -43.47471350 Ry

     total magnetization       =     2.17 Bohr mag/cell
     absolute magnetization    =     2.27 Bohr mag/cell

     convergence has been achieved in  11 iterations

     Forces acting on atoms (cartesian axes, Ry/au):

     atom    1 type  1   force =     0.00000000    0.00000000    0.00000000

     Total force =     0.000000     Total SCF correction =     0.000000


     Computing stress (Cartesian axis) and pressure

          total   stress  (Ry/bohr**3)                   (kbar)     P=        0.24
   0.00000163  -0.00000000  -0.00000000            0.24       -0.00       -0.00
  -0.00000000   0.00000163  -0.00000000           -0.00        0.24       -0.00
  -0.00000000  -0.00000000   0.00000163           -0.00       -0.00        0.24

     Message from routine punch:
     Nothing written, as per user request (disk_io='none')

     init_run     :      0.48s CPU      0.50s WALL (       2 calls)
     electrons    :      4.69s CPU      5.14s WALL (       9 calls)
     update_pot   :      0.05s CPU      0.06s WALL (       7 calls)
     forces       :      0.16s CPU      0.17s WALL (       9 calls)
     stress       :      0.95s CPU      0.96s WALL (       9 calls)

     Called by init_run:
     wfcinit      :      0.02s CPU      0.02s WALL (       2 calls)
     potinit      :      0.14s CPU      0.14s WALL (       2 calls)
     hinit0       :      0.30s CPU      0.30s WALL (       2 calls)

     Called by electrons:
     c_bands      :      1.98s CPU      2.25s WALL (      79 calls)
     sum_band     :      1.47s CPU      1.56s WALL (      79 calls)
     v_of_rho     :      0.59s CPU      0.64s WALL (      86 calls)
     newd         :      0.69s CPU      0.73s WALL (      86 calls)
     mix_rho      :      0.04s CPU      0.04s WALL (      79 calls)

     Called by c_bands:
     init_us_2    :      0.07s CPU      0.08s WALL (    3560 calls)
     cegterg      :      1.82s CPU      2.07s WALL (    1580 calls)

     Called by *egterg:
     cdiaghg      :      0.27s CPU      0.31s WALL (    5416 calls)
     h_psi        :      1.29s CPU      1.47s WALL (    5636 calls)
     s_psi        :      0.02s CPU      0.03s WALL (    5636 calls)
     g_psi        :      0.01s CPU      0.01s WALL (    4016 calls)

     Called by h_psi:
     h_psi:calbec :      0.07s CPU      0.08s WALL (    5636 calls)
     vloc_psi     :      1.17s CPU      1.33s WALL (    5636 calls)
     add_vuspsi   :      0.03s CPU      0.03s WALL (    5636 calls)

     General routines
     calbec       :      0.11s CPU      0.12s WALL (   10276 calls)
     fft          :      0.32s CPU      0.34s WALL (    2503 calls)
     ffts         :      0.12s CPU      0.12s WALL (     330 calls)
     fftw         :      1.12s CPU      1.29s WALL (   79216 calls)
     interpolate  :      0.13s CPU      0.13s WALL (     172 calls)

     Parallel routines

     PWSCF        :      6.50s CPU      7.00s WALL


   This run was terminated on:  17:51:47  20Oct2025            

=------------------------------------------------------------------------------=
   JOB DONE.
=------------------------------------------------------------------------------=
