
     Program PWSCF v.7.4.1 starts on 21Oct2025 at 19:20:17 

     This program is part of the open-source Quantum ESPRESSO suite
     for quantum simulation of materials; please cite
         "P. Giannozzi et al., J. Phys.:Condens. Matter 21 395502 (2009);
         "P. Giannozzi et al., J. Phys.:Condens. Matter 29 465901 (2017);
         "P. Giannozzi et al., J. Chem. Phys. 152 154105 (2020);
          URL http://www.quantum-espresso.org", 
     in publications or presentations arising from this work. More details at
     http://www.quantum-espresso.org/quote

     Parallel version (MPI), running on     2 processors

     MPI processes distributed on     1 nodes
     276 MiB available memory on the printing compute node when the environment starts

     Waiting for input...
     Reading input from standard input
Warning: card &CELL ignored
Warning: card     CELL_DYNAMICS = 'BFGS' ignored
Warning: card / ignored

     Current dimensions of program PWSCF are:
     Max number of different atomic species (ntypx) = 10
     Max number of k-points (npk) =  40000
     Max angular momentum in pseudopotentials (lmaxx) =  4
     file Cu.pz-d-rrkjus.UPF: wavefunction(s)  3D renormalized
     Message from routine setup:
     using ibrav=0 with symmetry is DISCOURAGED, use correct ibrav instead

     R & G space division:  proc/nbgrp/npool/nimage =       2
     Subspace diagonalization in iterative solution of the eigenvalue problem:
     a serial algorithm will be used


     Parallelization info
     --------------------
     sticks:   dense  smooth     PW     G-vecs:    dense   smooth      PW
     Min         348     174     54                 9078     3218     584
     Max         349     175     55                 9081     3221     587
     Sum         697     349    109                18159     6439    1171

     Using Slab Decomposition



     bravais-lattice index     =            0
     lattice parameter (alat)  =       5.2358  a.u.
     unit-cell volume          =     187.8922 (a.u.)^3
     number of atoms/cell      =            2
     number of atomic types    =            2
     number of electrons       =        22.00
     number of Kohn-Sham states=           15
     kinetic-energy cutoff     =      40.0000  Ry
     charge density cutoff     =     320.0000  Ry
     scf convergence threshold =      1.0E-07
     mixing beta               =       0.7000
     number of iterations used =            8  plain     mixing
     Exchange-correlation=  SLA  PZ   NOGX NOGC
                           (   1   1   0   0   0   0   0)

     celldm(1)=   5.235808  celldm(2)=   0.000000  celldm(3)=   0.000000
     celldm(4)=   0.000000  celldm(5)=   0.000000  celldm(6)=   0.000000

     crystal axes: (cart. coord. in units of alat)
               a(1) = (   1.000000   0.000000   0.000000 )  
               a(2) = (   0.000000   1.000000   0.000000 )  
               a(3) = (   0.000000   0.000000   1.309054 )  

     reciprocal axes: (cart. coord. in units 2 pi/alat)
               b(1) = (  1.000000  0.000000  0.000000 )  
               b(2) = (  0.000000  1.000000  0.000000 )  
               b(3) = (  0.000000  0.000000  0.763910 )  


     PseudoPot. # 1 for Au read from file:
     /home/bond/Software/QE/qe-7.4.1/pseudo/Au.pz-d-rrkjus.UPF
     MD5 check sum: 424ffd4ac9c90487cbadcd287136c95b
     Pseudo is Ultrasoft, Zval = 11.0
     Generated by new atomic code, or converted to UPF format
     Using radial grid of 1279 points,  3 beta functions with: 
                l(1) =   2
                l(2) =   2
                l(3) =   1
     Q(r) pseudized with 0 coefficients 


     PseudoPot. # 2 for Cu read from file:
     /home/bond/Software/QE/qe-7.4.1/pseudo/Cu.pz-d-rrkjus.UPF
     MD5 check sum: fd38ae683e239c95a66f426e1f8e5fc7
     Pseudo is Ultrasoft, Zval = 11.0
     Generated by new atomic code, or converted to UPF format
     Using radial grid of  899 points,  3 beta functions with: 
                l(1) =   2
                l(2) =   2
                l(3) =   1
     Q(r) pseudized with 0 coefficients 


     atomic species   valence    mass     pseudopotential
     Au               11.00   196.96657     Au( 1.00)
     Cu               11.00    63.54600     Cu( 1.00)

     16 Sym. Ops., with inversion, found



   Cartesian axes

     site n.     atom                  positions (alat units)
         1        Cu     tau(   1) = (   0.0000000   0.0000000   0.0000000  )
         2        Au     tau(   2) = (   0.5000018   0.5000018   0.6545276  )

     number of k points=    75  Methfessel-Paxton smearing, width (Ry)=  0.0200
                       cart. coord. in units 2pi/alat
        k(    1) = (   0.0500000   0.0500000   0.0381955), wk =   0.0160000
        k(    2) = (   0.0500000   0.0500000   0.1145865), wk =   0.0160000
        k(    3) = (   0.0500000   0.0500000   0.1909776), wk =   0.0160000
        k(    4) = (   0.0500000   0.0500000   0.2673686), wk =   0.0160000
        k(    5) = (   0.0500000   0.0500000   0.3437596), wk =   0.0160000
        k(    6) = (   0.0500000   0.1500000   0.0381955), wk =   0.0320000
        k(    7) = (   0.0500000   0.1500000   0.1145865), wk =   0.0320000
        k(    8) = (   0.0500000   0.1500000   0.1909776), wk =   0.0320000
        k(    9) = (   0.0500000   0.1500000   0.2673686), wk =   0.0320000
        k(   10) = (   0.0500000   0.1500000   0.3437596), wk =   0.0320000
        k(   11) = (   0.0500000   0.2500000   0.0381955), wk =   0.0320000
        k(   12) = (   0.0500000   0.2500000   0.1145865), wk =   0.0320000
        k(   13) = (   0.0500000   0.2500000   0.1909776), wk =   0.0320000
        k(   14) = (   0.0500000   0.2500000   0.2673686), wk =   0.0320000
        k(   15) = (   0.0500000   0.2500000   0.3437596), wk =   0.0320000
        k(   16) = (   0.0500000   0.3500000   0.0381955), wk =   0.0320000
        k(   17) = (   0.0500000   0.3500000   0.1145865), wk =   0.0320000
        k(   18) = (   0.0500000   0.3500000   0.1909776), wk =   0.0320000
        k(   19) = (   0.0500000   0.3500000   0.2673686), wk =   0.0320000
        k(   20) = (   0.0500000   0.3500000   0.3437596), wk =   0.0320000
        k(   21) = (   0.0500000   0.4500000   0.0381955), wk =   0.0320000
        k(   22) = (   0.0500000   0.4500000   0.1145865), wk =   0.0320000
        k(   23) = (   0.0500000   0.4500000   0.1909776), wk =   0.0320000
        k(   24) = (   0.0500000   0.4500000   0.2673686), wk =   0.0320000
        k(   25) = (   0.0500000   0.4500000   0.3437596), wk =   0.0320000
        k(   26) = (   0.1500000   0.1500000   0.0381955), wk =   0.0160000
        k(   27) = (   0.1500000   0.1500000   0.1145865), wk =   0.0160000
        k(   28) = (   0.1500000   0.1500000   0.1909776), wk =   0.0160000
        k(   29) = (   0.1500000   0.1500000   0.2673686), wk =   0.0160000
        k(   30) = (   0.1500000   0.1500000   0.3437596), wk =   0.0160000
        k(   31) = (   0.1500000   0.2500000   0.0381955), wk =   0.0320000
        k(   32) = (   0.1500000   0.2500000   0.1145865), wk =   0.0320000
        k(   33) = (   0.1500000   0.2500000   0.1909776), wk =   0.0320000
        k(   34) = (   0.1500000   0.2500000   0.2673686), wk =   0.0320000
        k(   35) = (   0.1500000   0.2500000   0.3437596), wk =   0.0320000
        k(   36) = (   0.1500000   0.3500000   0.0381955), wk =   0.0320000
        k(   37) = (   0.1500000   0.3500000   0.1145865), wk =   0.0320000
        k(   38) = (   0.1500000   0.3500000   0.1909776), wk =   0.0320000
        k(   39) = (   0.1500000   0.3500000   0.2673686), wk =   0.0320000
        k(   40) = (   0.1500000   0.3500000   0.3437596), wk =   0.0320000
        k(   41) = (   0.1500000   0.4500000   0.0381955), wk =   0.0320000
        k(   42) = (   0.1500000   0.4500000   0.1145865), wk =   0.0320000
        k(   43) = (   0.1500000   0.4500000   0.1909776), wk =   0.0320000
        k(   44) = (   0.1500000   0.4500000   0.2673686), wk =   0.0320000
        k(   45) = (   0.1500000   0.4500000   0.3437596), wk =   0.0320000
        k(   46) = (   0.2500000   0.2500000   0.0381955), wk =   0.0160000
        k(   47) = (   0.2500000   0.2500000   0.1145865), wk =   0.0160000
        k(   48) = (   0.2500000   0.2500000   0.1909776), wk =   0.0160000
        k(   49) = (   0.2500000   0.2500000   0.2673686), wk =   0.0160000
        k(   50) = (   0.2500000   0.2500000   0.3437596), wk =   0.0160000
        k(   51) = (   0.2500000   0.3500000   0.0381955), wk =   0.0320000
        k(   52) = (   0.2500000   0.3500000   0.1145865), wk =   0.0320000
        k(   53) = (   0.2500000   0.3500000   0.1909776), wk =   0.0320000
        k(   54) = (   0.2500000   0.3500000   0.2673686), wk =   0.0320000
        k(   55) = (   0.2500000   0.3500000   0.3437596), wk =   0.0320000
        k(   56) = (   0.2500000   0.4500000   0.0381955), wk =   0.0320000
        k(   57) = (   0.2500000   0.4500000   0.1145865), wk =   0.0320000
        k(   58) = (   0.2500000   0.4500000   0.1909776), wk =   0.0320000
        k(   59) = (   0.2500000   0.4500000   0.2673686), wk =   0.0320000
        k(   60) = (   0.2500000   0.4500000   0.3437596), wk =   0.0320000
        k(   61) = (   0.3500000   0.3500000   0.0381955), wk =   0.0160000
        k(   62) = (   0.3500000   0.3500000   0.1145865), wk =   0.0160000
        k(   63) = (   0.3500000   0.3500000   0.1909776), wk =   0.0160000
        k(   64) = (   0.3500000   0.3500000   0.2673686), wk =   0.0160000
        k(   65) = (   0.3500000   0.3500000   0.3437596), wk =   0.0160000
        k(   66) = (   0.3500000   0.4500000   0.0381955), wk =   0.0320000
        k(   67) = (   0.3500000   0.4500000   0.1145865), wk =   0.0320000
        k(   68) = (   0.3500000   0.4500000   0.1909776), wk =   0.0320000
        k(   69) = (   0.3500000   0.4500000   0.2673686), wk =   0.0320000
        k(   70) = (   0.3500000   0.4500000   0.3437596), wk =   0.0320000
        k(   71) = (   0.4500000   0.4500000   0.0381955), wk =   0.0160000
        k(   72) = (   0.4500000   0.4500000   0.1145865), wk =   0.0160000
        k(   73) = (   0.4500000   0.4500000   0.1909776), wk =   0.0160000
        k(   74) = (   0.4500000   0.4500000   0.2673686), wk =   0.0160000
        k(   75) = (   0.4500000   0.4500000   0.3437596), wk =   0.0160000

     Dense  grid:    18159 G-vectors     FFT dimensions: (  30,  30,  40)

     Smooth grid:     6439 G-vectors     FFT dimensions: (  24,  24,  27)

     Estimated max dynamical RAM per process >      29.97 MB

     Estimated total dynamical RAM >      59.93 MB

     Initial potential from superposition of free atoms

     starting charge      21.9996, renormalised to      22.0000
     Starting wfcs are   15 randomized atomic wfcs

     total cpu time spent up to now is        1.4 secs

     Self-consistent Calculation

     iteration #  1     ecut=    40.00 Ry     beta= 0.70
     Davidson diagonalization with overlap
     ethr =  1.00E-02,  avg # of iterations =  4.2

     total cpu time spent up to now is        3.0 secs

     total energy              =    -154.62163918 Ry
     estimated scf accuracy    <       0.26411292 Ry

     iteration #  2     ecut=    40.00 Ry     beta= 0.70
     Davidson diagonalization with overlap
     ethr =  1.20E-03,  avg # of iterations =  2.1

     total cpu time spent up to now is        4.4 secs

     total energy              =    -154.69868842 Ry
     estimated scf accuracy    <       0.16458005 Ry

     iteration #  3     ecut=    40.00 Ry     beta= 0.70
     Davidson diagonalization with overlap
     ethr =  7.48E-04,  avg # of iterations =  2.0

     total cpu time spent up to now is        5.5 secs

     total energy              =    -154.72732378 Ry
     estimated scf accuracy    <       0.01418927 Ry

     iteration #  4     ecut=    40.00 Ry     beta= 0.70
     Davidson diagonalization with overlap
     ethr =  6.45E-05,  avg # of iterations =  3.1

     total cpu time spent up to now is        6.8 secs

     total energy              =    -154.73058801 Ry
     estimated scf accuracy    <       0.00109655 Ry

     iteration #  5     ecut=    40.00 Ry     beta= 0.70
     Davidson diagonalization with overlap
     ethr =  4.98E-06,  avg # of iterations =  3.8

     total cpu time spent up to now is        8.2 secs

     total energy              =    -154.73085676 Ry
     estimated scf accuracy    <       0.00009964 Ry

     iteration #  6     ecut=    40.00 Ry     beta= 0.70
     Davidson diagonalization with overlap
     ethr =  4.53E-07,  avg # of iterations =  1.5

     total cpu time spent up to now is        9.3 secs

     total energy              =    -154.73087279 Ry
     estimated scf accuracy    <       0.00000020 Ry

     iteration #  7     ecut=    40.00 Ry     beta= 0.70
     Davidson diagonalization with overlap
     ethr =  9.27E-10,  avg # of iterations =  3.0

     total cpu time spent up to now is       10.8 secs

     End of self-consistent calculation

          k = 0.0500 0.0500 0.0382 (   808 PWs)   bands (ev):

     5.6580   8.7843   8.9591  11.3670  11.4298  12.5006  12.6347  13.3587
    13.7764  13.8887  14.0969  18.0097  24.2964  25.9053  26.0542

          k = 0.0500 0.0500 0.1146 (   810 PWs)   bands (ev):

     5.9044   8.8315   9.0538  11.4149  11.4706  12.5449  12.5752  13.2885
    13.5982  13.8529  13.9340  16.7152  25.7399  26.3631  26.7444

          k = 0.0500 0.0500 0.1910 (   808 PWs)   bands (ev):

     6.3621   8.9117   9.2226  11.5005  11.5480  12.4821  12.6074  13.1249
    13.3554  13.6636  13.7456  15.1694  26.9934  27.2098  28.6763

          k = 0.0500 0.0500 0.2674 (   809 PWs)   bands (ev):

     6.9328   8.9973   9.4258  11.5969  11.6483  12.4026  12.5695  12.7549
    13.2301  13.3726  13.5689  14.0205  28.1638  28.3242  30.9111

          k = 0.0500 0.0500 0.3438 (   804 PWs)   bands (ev):

     7.3846   9.0533   9.5963  11.6602  11.7523  12.0177  12.3746  12.6495
    13.1689  13.2251  13.3934  13.6117  29.4381  29.4722  30.7744

          k = 0.0500 0.1500 0.0382 (   805 PWs)   bands (ev):

     6.1316   8.9979   9.2623  11.1010  11.5193  12.2931  12.7080  13.3230
    13.3615  13.6087  14.0359  19.1228  23.0298  24.9192  26.6968

          k = 0.0500 0.1500 0.1146 (   808 PWs)   bands (ev):

     6.3693   9.0457   9.3514  11.1068  11.5132  12.3235  12.6750  13.1559
    13.3133  13.5322  13.9960  17.7339  23.5742  26.4514  27.2017

          k = 0.0500 0.1500 0.1910 (   811 PWs)   bands (ev):

     6.8104   9.1262   9.4944  11.1195  11.5257  12.2984  12.6299  12.9396
    13.2516  13.3898  13.9149  16.1326  24.3669  27.7036  29.0053

          k = 0.0500 0.1500 0.2674 (   808 PWs)   bands (ev):

     7.3631   9.2220   9.5897  11.1891  11.5715  12.1735  12.5890  12.6301
    13.1954  13.4111  13.7598  14.8003  25.3663  28.5763  29.3380

          k = 0.0500 0.1500 0.3438 (   806 PWs)   bands (ev):

     7.8120   9.3311   9.5208  11.4120  11.6431  11.9743  12.2356  12.5961
    13.2433  13.5072  13.6156  13.9957  26.5067  27.7293  30.0029

          k = 0.0500 0.2500 0.0382 (   802 PWs)   bands (ev):

     6.9712   9.2881   9.8923  10.6393  11.6790  11.9590  12.7366  12.8828
    13.3555  13.4616  13.8639  20.4428  20.7437  25.0191  27.9267

          k = 0.0500 0.2500 0.1146 (   800 PWs)   bands (ev):

     7.1715   9.3099   9.9972  10.6292  11.5672  11.9864  12.7099  12.8700
    13.2855  13.4187  13.9311  19.0820  20.8314  26.9895  28.2102

          k = 0.0500 0.2500 0.1910 (   805 PWs)   bands (ev):

     7.5305   9.3133  10.1767  10.6684  11.4801  11.9054  12.6653  12.8175
    13.2747  13.4018  13.9681  17.2748  21.5404  27.7008  28.9243

          k = 0.0500 0.2500 0.2674 (   807 PWs)   bands (ev):

     7.9583   9.2503  10.2731  10.9488  11.4593  11.7588  12.5276  12.7517
    13.2858  13.5798  13.9147  15.6891  22.4840  26.2513  29.7555

          k = 0.0500 0.2500 0.3438 (   811 PWs)   bands (ev):

     8.3011   9.1316  10.2761  11.3881  11.5200  11.6445  12.2397  12.7266
    13.4472  13.7405  13.8878  14.5325  23.5869  24.8881  30.5891

          k = 0.0500 0.3500 0.0382 (   797 PWs)   bands (ev):

     7.9363   9.6368  10.1644  10.5894  11.6214  11.8857  12.6317  12.6899
    13.1865  13.6200  13.7996  18.0120  22.5346  25.5081  28.5431

          k = 0.0500 0.3500 0.1146 (   801 PWs)   bands (ev):

     8.0446   9.5020  10.2021  10.8592  11.5002  11.8497  12.6125  12.7330
    13.2493  13.7343  13.7718  18.1993  20.6793  26.6930  27.9902

          k = 0.0500 0.3500 0.1910 (   802 PWs)   bands (ev):

     8.2127   9.2513  10.5136  11.1139  11.4362  11.7304  12.6137  12.7667
    13.4608  13.6362  13.9061  17.8696  19.6173  25.1616  30.2170

          k = 0.0500 0.3500 0.2674 (   803 PWs)   bands (ev):

     8.3894   8.9939  10.9829  11.1727  11.5009  11.6972  12.6401  12.8385
    13.5334  13.7610  13.9578  16.4227  20.0874  23.6784  30.8273

          k = 0.0500 0.3500 0.3438 (   803 PWs)   bands (ev):

     8.5585   8.7747  11.1182  11.4074  11.4365  11.8570  12.6523  12.9543
    13.6330  13.8735  14.1521  15.0561  20.9203  22.4503  31.3468

          k = 0.0500 0.4500 0.0382 (   803 PWs)   bands (ev):

     8.6155   9.8107  10.0622  10.8250  11.5984  11.9482  12.5616  12.6748
    13.1422  13.3818  14.4810  16.0885  24.3084  25.8723  27.4108

          k = 0.0500 0.4500 0.1146 (   804 PWs)   bands (ev):

     8.6438   9.3973  10.2621  11.0585  11.7563  11.8838  12.5764  12.6237
    13.3705  13.5651  14.4429  16.1404  22.2866  24.5137  29.2088

          k = 0.0500 0.4500 0.1910 (   799 PWs)   bands (ev):

     8.6559   9.0106  10.6289  11.0463  11.6484  12.3246  12.6351  12.7173
    13.6369  13.7816  14.3644  16.1704  20.4981  22.9524  31.2965

          k = 0.0500 0.4500 0.2674 (   798 PWs)   bands (ev):

     8.5971   8.7810  10.9579  11.0814  11.4755  12.7073  12.8805  13.0166
    13.8190  13.9221  14.3076  15.9423  19.2973  21.6730  31.8628

          k = 0.0500 0.4500 0.3438 (   792 PWs)   bands (ev):

     8.4947   8.7261  10.9043  11.3572  11.4067  12.7515  13.2543  13.5153
    13.7525  13.9018  14.5603  15.2629  18.9105  20.8698  32.1607

          k = 0.1500 0.1500 0.0382 (   808 PWs)   bands (ev):

     6.6014   9.3417   9.4134  10.9854  11.3466  12.0073  12.8149  13.0074
    13.3854  13.4700  14.1147  19.9687  23.3879  23.8469  25.6082

          k = 0.1500 0.1500 0.1146 (   803 PWs)   bands (ev):

     6.8350   9.3806   9.5074  10.9998  11.2625  11.9561  12.7955  12.9816
    13.3708  13.5146  13.9529  18.4785  24.0822  24.2658  27.0771

          k = 0.1500 0.1500 0.1910 (   803 PWs)   bands (ev):

     7.2700   9.4468   9.6403  11.0221  11.1709  11.8462  12.7762  12.9370
    13.4120  13.5098  13.6882  16.8448  24.8006  25.0282  29.2771

          k = 0.1500 0.1500 0.2674 (   803 PWs)   bands (ev):

     7.8260   9.5176   9.6686  11.0423  11.2186  11.7610  12.7214  12.7881
    13.3576  13.4015  13.6671  15.4899  25.6555  26.0126  29.2058

          k = 0.1500 0.1500 0.3438 (   806 PWs)   bands (ev):

     8.3156   9.5146   9.5642  11.0528  11.4649  11.8215  12.2713  12.8443
    13.1798  13.2432  14.0096  14.5935  26.6570  27.0002  27.8982

          k = 0.1500 0.2500 0.0382 (   799 PWs)   bands (ev):

     7.4214   9.6255   9.9696  10.5759  11.2419  11.6502  12.8757  12.9440
    13.2841  13.4853  14.0477  20.9628  21.3667  24.3977  26.0094

          k = 0.1500 0.2500 0.1146 (   797 PWs)   bands (ev):

     7.6269   9.6664  10.0548  10.5623  11.1501  11.5663  12.8605  13.0449
    13.2997  13.4922  13.9409  19.6272  21.3638  25.2137  27.5030

          k = 0.1500 0.2500 0.1910 (   797 PWs)   bands (ev):

     7.9972   9.6701  10.2096  10.5951  11.0663  11.4438  12.8304  13.0685
    13.2563  13.6459  13.7884  17.8576  22.0390  25.8649  28.2353

          k = 0.1500 0.2500 0.2674 (   803 PWs)   bands (ev):

     8.4502   9.5594  10.2766  10.8185  11.0904  11.3680  12.6971  12.9899
    13.1915  13.6063  13.9809  16.3467  22.9399  26.3555  27.0014

          k = 0.1500 0.2500 0.3438 (   805 PWs)   bands (ev):

     8.8709   9.3310  10.2860  10.9156  11.2013  11.6143  12.3548  12.9550
    13.2118  13.3966  14.4242  15.2679  24.0082  25.2157  27.6348

          k = 0.1500 0.3500 0.0382 (   801 PWs)   bands (ev):

     8.3591   9.9088  10.0882  10.3107  11.1909  11.7206  12.9050  13.0101
    13.2614  13.7648  13.8563  18.4542  22.9415  25.3885  26.8226

          k = 0.1500 0.3500 0.1146 (   802 PWs)   bands (ev):

     8.4801   9.7809  10.1588  10.4598  11.1307  11.7075  12.8455  12.9998
    13.4979  13.7047  13.8554  18.7356  21.0069  26.5080  27.2028

          k = 0.1500 0.3500 0.1910 (   797 PWs)   bands (ev):

     8.6546   9.5624  10.4651  10.6007  11.0613  11.7159  12.7817  12.9564
    13.5962  13.8158  13.9026  18.6345  19.8181  25.4351  27.2697

          k = 0.1500 0.3500 0.2674 (   805 PWs)   bands (ev):

     8.8039   9.3683  10.6081  10.9780  11.0689  11.7719  12.6839  12.9372
    13.4845  13.7497  14.3519  17.2078  20.4117  23.9527  27.8603

          k = 0.1500 0.3500 0.3438 (   805 PWs)   bands (ev):

     8.8927   9.2455  10.6287  10.9811  11.5366  11.8384  12.5681  12.9316
    13.4333  13.6136  14.9040  15.9864  21.3305  22.6745  28.5021

          k = 0.1500 0.4500 0.0382 (   800 PWs)   bands (ev):

     9.1184   9.7607  10.0730  10.1593  11.1619  12.0826  12.9929  13.1092
    13.3780  13.6073  14.5414  16.3220  24.6100  26.2712  26.9678

          k = 0.1500 0.4500 0.1146 (   800 PWs)   bands (ev):

     9.1273   9.5103  10.2509  10.3124  11.1520  12.1856  12.8626  12.9277
    13.6736  13.7537  14.6070  16.4890  22.5879  24.7515  28.3351

          k = 0.1500 0.4500 0.1910 (   805 PWs)   bands (ev):

     8.9948   9.3944  10.3679  10.6388  11.1229  12.3825  12.7347  12.8814
    13.8342  13.8698  14.8279  16.7629  20.7792  23.1521  28.7406

          k = 0.1500 0.4500 0.2674 (   801 PWs)   bands (ev):

     8.8080   9.3587  10.3975  11.0293  11.1717  12.6296  12.7107  12.8917
    13.8222  13.8487  15.2450  16.9135  19.4864  21.8190  29.1618

          k = 0.1500 0.4500 0.3438 (   800 PWs)   bands (ev):

     8.6969   9.3391  10.3970  11.0203  11.5274  12.7800  12.8285  12.9099
    13.7000  13.7711  15.8004  16.5283  19.1084  20.9327  29.5639

          k = 0.2500 0.2500 0.0382 (   793 PWs)   bands (ev):

     8.1322   9.8669  10.4114  10.4223  10.6920  11.4601  13.0541  13.1473
    13.2127  13.5507  14.1433  21.3605  22.0871  22.8671  25.9631

          k = 0.2500 0.2500 0.1146 (   797 PWs)   bands (ev):

     8.3268   9.9919  10.4144  10.4408  10.5797  11.3454  13.0871  13.1409
    13.2795  13.6629  13.9803  20.4933  21.8124  22.9818  27.8598

          k = 0.2500 0.2500 0.1910 (   802 PWs)   bands (ev):

     8.6640  10.1114  10.4249  10.4664  10.5509  11.2074  13.0319  13.1341
    13.2680  13.7324  13.9933  18.7527  22.6296  23.3310  28.2772

          k = 0.2500 0.2500 0.2674 (   803 PWs)   bands (ev):

     9.0406   9.9955  10.4383  10.4909  10.8045  11.2137  12.8083  13.1389
    13.2092  13.4914  14.4547  17.2428  23.6992  23.8788  26.8512

          k = 0.2500 0.2500 0.3438 (   800 PWs)   bands (ev):

     9.3239   9.8414  10.4477  10.5059  10.8660  11.6468  12.4098  13.1520
    13.1673  13.3244  14.9784  16.1456  24.6250  24.8846  25.6448

          k = 0.2500 0.3500 0.0382 (   801 PWs)   bands (ev):

     8.7716   9.8061  10.0100  10.4862  10.8353  12.0478  13.1861  13.2505
    13.5100  13.7089  14.0820  19.0823  23.0826  24.1887  26.4659

          k = 0.2500 0.3500 0.1146 (   800 PWs)   bands (ev):

     8.8949   9.9371  10.0139  10.4300  10.8260  11.9284  13.1105  13.2005
    13.6453  13.9156  13.9755  19.4798  21.6145  24.0534  27.5898

          k = 0.2500 0.3500 0.1910 (   802 PWs)   bands (ev):

     9.0619   9.9013  10.3114  10.3841  10.8224  11.8264  12.9705  13.1929
    13.5471  13.7900  14.4663  19.7859  20.2519  24.4037  25.9684

          k = 0.2500 0.3500 0.2674 (   805 PWs)   bands (ev):

     9.1775   9.8504  10.3726  10.5282  11.0887  11.7950  12.7516  13.1661
    13.4251  13.6479  15.0655  18.2795  21.0866  24.4967  25.0056

          k = 0.2500 0.3500 0.3438 (   799 PWs)   bands (ev):

     9.2181   9.8344  10.3828  10.5212  11.6024  11.8424  12.4162  13.1329
    13.3357  13.5638  15.6902  17.1216  22.0897  23.2239  25.7378

          k = 0.2500 0.4500 0.0382 (   795 PWs)   bands (ev):

     9.0826   9.7349   9.7458  10.4268  10.9277  12.6706  13.3608  13.4079
    13.7215  13.9081  14.6907  16.7340  24.5034  25.7865  26.9371

          k = 0.2500 0.4500 0.1146 (   800 PWs)   bands (ev):

     9.0920   9.7216   9.9607  10.4175  10.9014  12.5748  13.1389  13.2529
    13.8735  13.9351  15.0331  17.0772  23.0759  25.0927  25.8049

          k = 0.2500 0.4500 0.1910 (   804 PWs)   bands (ev):

     9.0857   9.7051  10.2600  10.4995  10.8737  12.4815  12.9065  13.1833
    13.8619  13.9004  15.6089  17.6541  21.3693  23.5647  26.0109

          k = 0.2500 0.4500 0.2674 (   802 PWs)   bands (ev):

     9.0593   9.6940  10.3451  10.5987  11.1797  12.4675  12.6833  13.1493
    13.7720  13.8027  16.2867  18.2532  19.9481  22.1897  26.4710

          k = 0.2500 0.4500 0.3438 (   805 PWs)   bands (ev):

     9.0350   9.6891  10.4069  10.5076  11.7190  12.4116  12.5079  13.1235
    13.6430  13.7495  17.0230  18.0690  19.6284  21.1623  26.9072

          k = 0.3500 0.3500 0.0382 (   795 PWs)   bands (ev):

     8.7267   9.7345   9.8837   9.9769  11.9277  12.7719  13.4030  13.5562
    13.6498  13.8591  14.1694  18.9519  21.9828  24.9334  26.5027

          k = 0.3500 0.3500 0.1146 (   805 PWs)   bands (ev):

     8.8209   9.8873   9.8971  10.0028  11.8753  12.3978  13.2932  13.5455
    13.5918  13.9981  14.4761  19.4924  21.8496  23.3211  26.6259

          k = 0.3500 0.3500 0.1910 (   807 PWs)   bands (ev):

     8.9782   9.8143   9.9215  10.4209  11.7789  12.0650  13.1494  13.4825
    13.5144  13.7975  15.1909  20.4269  20.8702  22.7068  25.9595

          k = 0.3500 0.3500 0.2674 (   807 PWs)   bands (ev):

     9.1605   9.6822   9.9500  11.0119  11.6681  11.8810  12.8679  13.3632
    13.4516  13.6840  15.9349  19.4578  21.6116  22.8341  25.0456

          k = 0.3500 0.3500 0.3438 (   804 PWs)   bands (ev):

     9.3393   9.5273   9.9702  11.5461  11.5925  11.9312  12.4176  13.2812
    13.3987  13.6488  16.6374  18.3454  22.9435  23.0775  24.3909

          k = 0.3500 0.4500 0.0382 (   797 PWs)   bands (ev):

     8.5623   9.6342   9.7731   9.8765  12.4027  13.3511  13.6008  13.6923
    13.9297  14.1110  15.0081  17.1259  22.6713  25.0115  26.0548

          k = 0.3500 0.4500 0.1146 (   801 PWs)   bands (ev):

     8.6415   9.6212   9.8873  10.0164  12.2676  13.0360  13.4332  13.5507
    13.8943  14.0010  15.6665  17.6709  22.6950  24.4632  24.8738

          k = 0.3500 0.4500 0.1910 (   803 PWs)   bands (ev):

     8.7815   9.5859   9.9122  10.4720  12.0249  12.6599  13.1997  13.4727
    13.8315  13.8747  16.4883  18.5332  22.1472  23.7336  23.9841

          k = 0.3500 0.4500 0.2674 (   802 PWs)   bands (ev):

     8.9496   9.5166   9.9459  11.0724  11.7828  12.4097  12.8939  13.3790
    13.7421  13.8008  17.3447  19.5223  20.8736  22.7692  24.1110

          k = 0.3500 0.4500 0.3438 (   811 PWs)   bands (ev):

     9.0942   9.4289   9.9727  11.5262  11.8337  12.2782  12.4652  13.3034
    13.6755  13.7793  18.1693  19.6801  20.5597  21.7530  24.5680

          k = 0.4500 0.4500 0.0382 (   807 PWs)   bands (ev):

     8.2652   9.5748   9.5841   9.7674  13.5623  13.7715  13.8163  13.8749
    14.0195  14.1693  15.7952  16.9106  21.3981  23.5017  26.4193

          k = 0.4500 0.4500 0.1146 (   800 PWs)   bands (ev):

     8.3542   9.5955   9.5973  10.0091  13.2785  13.4164  13.6808  13.7396
    13.8692  14.0057  16.6204  17.6658  21.4956  23.2368  25.6176

          k = 0.4500 0.4500 0.1910 (   807 PWs)   bands (ev):

     8.5075   9.6187   9.6329  10.4652  12.8156  12.8402  13.4553  13.5996
    13.8622  13.9470  17.6497  18.7913  21.6835  22.8308  24.2903

          k = 0.4500 0.4500 0.2674 (   812 PWs)   bands (ev):

     8.6761   9.6375   9.6765  11.0757  12.4179  12.4194  13.0753  13.4534
    13.8582  13.9324  18.6979  20.0798  21.7436  22.5741  23.0490

          k = 0.4500 0.4500 0.3438 (   818 PWs)   bands (ev):

     8.7909   9.6453   9.7075  11.7266  12.1830  12.1963  12.5886  13.3537
    13.8568  13.9286  19.6313  21.1610  21.3407  22.2566  23.0561

     the Fermi energy is    15.7819 ev

!    total energy              =    -154.73087295 Ry
     estimated scf accuracy    <       0.00000002 Ry
     smearing contrib. (-TS)   =      -0.00005239 Ry
     internal energy E=F+TS    =    -154.73082057 Ry

     The total energy is F=E-TS. E is the sum of the following terms:
     one-electron contribution =      -4.10608521 Ry
     hartree contribution      =      27.67291453 Ry
     xc contribution           =     -24.55104683 Ry
     ewald contribution        =    -153.74660305 Ry

     convergence has been achieved in   7 iterations


     Computing stress (Cartesian axis) and pressure

          total   stress  (Ry/bohr**3)                   (kbar)     P=       -1.70
  -0.00001020   0.00000000   0.00000000           -1.50        0.00        0.00
   0.00000000  -0.00001020   0.00000000            0.00       -1.50        0.00
   0.00000000   0.00000000  -0.00001418            0.00        0.00       -2.09

     Message from routine punch:
     Nothing written, as per user request (disk_io='none')

     init_run     :      1.12s CPU      1.19s WALL (       1 calls)
     electrons    :      8.76s CPU      9.41s WALL (       1 calls)
     stress       :      0.72s CPU      0.73s WALL (       1 calls)

     Called by init_run:
     wfcinit      :      0.42s CPU      0.47s WALL (       1 calls)
     potinit      :      0.17s CPU      0.17s WALL (       1 calls)
     hinit0       :      0.45s CPU      0.45s WALL (       1 calls)

     Called by electrons:
     c_bands      :      7.12s CPU      7.65s WALL (       7 calls)
     sum_band     :      1.34s CPU      1.45s WALL (       7 calls)
     v_of_rho     :      0.02s CPU      0.02s WALL (       8 calls)
     newd         :      0.29s CPU      0.32s WALL (       8 calls)
     mix_rho      :      0.01s CPU      0.01s WALL (       7 calls)

     Called by c_bands:
     init_us_2    :      0.17s CPU      0.18s WALL (    1200 calls)
     cegterg      :      6.81s CPU      7.32s WALL (     525 calls)

     Called by *egterg:
     cdiaghg      :      0.57s CPU      0.62s WALL (    1998 calls)
     h_psi        :      5.78s CPU      6.23s WALL (    2073 calls)
     s_psi        :      0.09s CPU      0.09s WALL (    2073 calls)
     g_psi        :      0.02s CPU      0.03s WALL (    1473 calls)

     Called by h_psi:
     h_psi:calbec :      0.22s CPU      0.24s WALL (    2073 calls)
     vloc_psi     :      5.41s CPU      5.83s WALL (    2073 calls)
     add_vuspsi   :      0.10s CPU      0.11s WALL (    2073 calls)

     General routines
     calbec       :      0.36s CPU      0.39s WALL (    3573 calls)
     fft          :      0.17s CPU      0.18s WALL (      48 calls)
     ffts         :      0.13s CPU      0.13s WALL (      15 calls)
     fftw         :      5.54s CPU      5.99s WALL (   49257 calls)
     interpolate  :      0.14s CPU      0.14s WALL (       8 calls)

     Parallel routines

     PWSCF        :     10.77s CPU     11.49s WALL


   This run was terminated on:  19:20:28  21Oct2025            

=------------------------------------------------------------------------------=
   JOB DONE.
=------------------------------------------------------------------------------=
