
     Program PWSCF v.7.4.1 starts on  7Oct2025 at 23:57:43 

     This program is part of the open-source Quantum ESPRESSO suite
     for quantum simulation of materials; please cite
         "P. Giannozzi et al., J. Phys.:Condens. Matter 21 395502 (2009);
         "P. Giannozzi et al., J. Phys.:Condens. Matter 29 465901 (2017);
         "P. Giannozzi et al., J. Chem. Phys. 152 154105 (2020);
          URL http://www.quantum-espresso.org", 
     in publications or presentations arising from this work. More details at
     http://www.quantum-espresso.org/quote

     Parallel version (MPI), running on     1 processors

     MPI processes distributed on     1 nodes
     197 MiB available memory on the printing compute node when the environment starts

     Waiting for input...
     Reading input from standard input
Warning: card &CELL ignored
Warning: card / ignored

     Current dimensions of program PWSCF are:
     Max number of different atomic species (ntypx) = 10
     Max number of k-points (npk) =  40000
     Max angular momentum in pseudopotentials (lmaxx) =  4
     Message from routine setup:
     using ibrav=0 with symmetry is DISCOURAGED, use correct ibrav instead

     Subspace diagonalization in iterative solution of the eigenvalue problem:
     a serial algorithm will be used


     G-vector sticks info
     --------------------
     sticks:   dense  smooth     PW     G-vecs:    dense   smooth      PW
     Sum         859     859    253                16865    16865    2733

     Using Slab Decomposition



     bravais-lattice index     =            0
     lattice parameter (alat)  =       7.5604  a.u.
     unit-cell volume          =     305.5804 (a.u.)^3
     number of atoms/cell      =            2
     number of atomic types    =            1
     number of electrons       =        28.00
     number of Kohn-Sham states=           14
     kinetic-energy cutoff     =      55.0000  Ry
     charge density cutoff     =     220.0000  Ry
     scf convergence threshold =      1.0E-07
     mixing beta               =       0.5000
     number of iterations used =            8  plain     mixing
     Exchange-correlation=  SLA  PZ   NOGX NOGC
                           (   1   1   0   0   0   0   0)

     celldm(1)=   7.560435  celldm(2)=   0.000000  celldm(3)=   0.000000
     celldm(4)=   0.000000  celldm(5)=   0.000000  celldm(6)=   0.000000

     crystal axes: (cart. coord. in units of alat)
               a(1) = (   0.000000   0.707107   0.707107 )  
               a(2) = (   0.707107   0.000000   0.707107 )  
               a(3) = (   0.707107   0.707107   0.000000 )  

     reciprocal axes: (cart. coord. in units 2 pi/alat)
               b(1) = ( -0.707107  0.707107  0.707107 )  
               b(2) = (  0.707107 -0.707107  0.707107 )  
               b(3) = (  0.707107  0.707107 -0.707107 )  


     PseudoPot. # 1 for Ge read from file:
     /home/bond/Software/QE/qe-7.4.1/pseudo/ge_lda_v1.4.uspp.F.UPF
     MD5 check sum: bf9d52b59cc8a669818bb2b52e0c2ba0
     Pseudo is Ultrasoft + core correction, Zval = 14.0
     Generated by new atomic code, or converted to UPF format
     Using radial grid of  873 points,  6 beta functions with: 
                l(1) =   0
                l(2) =   0
                l(3) =   1
                l(4) =   1
                l(5) =   2
                l(6) =   2
     Q(r) pseudized with  8 coefficients,  rinner =    1.400   1.400   1.400
                                                       1.400   1.400

     atomic species   valence    mass     pseudopotential
     Ge               14.00    72.63000     Ge( 1.00)

     48 Sym. Ops., with inversion, found (24 have fractional translation)



   Cartesian axes

     site n.     atom                  positions (alat units)
         1        Ge     tau(   1) = (   0.0000000   0.0000000   0.0000000  )
         2        Ge     tau(   2) = (   0.3535534   0.3535534   0.3535534  )

     number of k points=     8
                       cart. coord. in units 2pi/alat
        k(    1) = (   0.0000000   0.0000000   0.0000000), wk =   0.0312500
        k(    2) = (   0.1767767   0.1767767  -0.1767767), wk =   0.2500000
        k(    3) = (  -0.3535534  -0.3535534   0.3535534), wk =   0.1250000
        k(    4) = (   0.3535534   0.0000000   0.0000000), wk =   0.1875000
        k(    5) = (  -0.1767767  -0.5303301   0.5303301), wk =   0.7500000
        k(    6) = (   0.0000000  -0.3535534   0.3535534), wk =   0.3750000
        k(    7) = (  -0.7071068   0.0000000   0.0000000), wk =   0.0937500
        k(    8) = (  -0.7071068   0.3535534   0.0000000), wk =   0.1875000

     Dense  grid:    16865 G-vectors     FFT dimensions: (  36,  36,  36)

     Estimated max dynamical RAM per process >      68.34 MB

     Check: negative core charge=   -0.000002

     Initial potential from superposition of free atoms

     starting charge      27.9986, renormalised to      28.0000
     Starting wfcs are   18 randomized atomic wfcs

     total cpu time spent up to now is        1.1 secs

     Self-consistent Calculation

     iteration #  1     ecut=    55.00 Ry     beta= 0.50
     Davidson diagonalization with overlap
     ethr =  1.00E-02,  avg # of iterations =  1.8

     Threshold (ethr) on eigenvalues was too large:
     Diagonalizing with lowered threshold

     Davidson diagonalization with overlap
     ethr =  1.31E-04,  avg # of iterations =  2.0

     total cpu time spent up to now is        2.2 secs

     total energy              =    -426.15263753 Ry
     estimated scf accuracy    <       0.03933385 Ry

     iteration #  2     ecut=    55.00 Ry     beta= 0.50
     Davidson diagonalization with overlap
     ethr =  1.40E-04,  avg # of iterations =  1.1

     total cpu time spent up to now is        2.7 secs

     total energy              =    -426.15110540 Ry
     estimated scf accuracy    <       0.00696118 Ry

     iteration #  3     ecut=    55.00 Ry     beta= 0.50
     Davidson diagonalization with overlap
     ethr =  2.49E-05,  avg # of iterations =  2.0

     total cpu time spent up to now is        3.2 secs

     total energy              =    -426.15160324 Ry
     estimated scf accuracy    <       0.00007472 Ry

     iteration #  4     ecut=    55.00 Ry     beta= 0.50
     Davidson diagonalization with overlap
     ethr =  2.67E-07,  avg # of iterations =  3.8

     total cpu time spent up to now is        3.9 secs

     total energy              =    -426.15162235 Ry
     estimated scf accuracy    <       0.00000319 Ry

     iteration #  5     ecut=    55.00 Ry     beta= 0.50
     Davidson diagonalization with overlap
     ethr =  1.14E-08,  avg # of iterations =  3.2

     total cpu time spent up to now is        4.5 secs

     total energy              =    -426.15162317 Ry
     estimated scf accuracy    <       0.00000016 Ry

     iteration #  6     ecut=    55.00 Ry     beta= 0.50
     Davidson diagonalization with overlap
     ethr =  5.74E-10,  avg # of iterations =  3.5

     total cpu time spent up to now is        5.1 secs

     End of self-consistent calculation

          k = 0.0000 0.0000 0.0000 (  2085 PWs)   bands (ev):

   -16.6789 -16.6789 -16.6789 -16.6428 -16.6428 -16.4316 -16.4316 -16.4316
   -16.4183 -16.4183  -4.6286   8.0076   8.1965   8.1965

          k = 0.1768 0.1768-0.1768 (  2100 PWs)   bands (ev):

   -16.6971 -16.6971 -16.6703 -16.6142 -16.6142 -16.4574 -16.4574 -16.4418
   -16.3978 -16.3978  -3.8866   3.4148   7.3105   7.3105

          k =-0.3536-0.3536 0.3536 (  2120 PWs)   bands (ev):

   -16.7034 -16.7034 -16.6613 -16.6009 -16.6009 -16.4663 -16.4663 -16.4523
   -16.3909 -16.3909  -2.5398   0.5411   6.7883   6.7883

          k = 0.3536 0.0000 0.0000 (  2085 PWs)   bands (ev):

   -16.6972 -16.6972 -16.6853 -16.6086 -16.5735 -16.5189 -16.4499 -16.4056
   -16.4031 -16.4031  -3.6187   3.4065   6.1508   6.1508

          k =-0.1768-0.5303 0.5303 (  2113 PWs)   bands (ev):

   -16.7246 -16.7095 -16.6414 -16.5738 -16.5543 -16.5355 -16.4873 -16.4559
   -16.3830 -16.3685  -2.1302   0.7528   4.4377   5.7863

          k = 0.0000-0.3536 0.3536 (  2099 PWs)   bands (ev):

   -16.7197 -16.7123 -16.6350 -16.5984 -16.5709 -16.4989 -16.4795 -16.4664
   -16.3793 -16.3760  -2.7443   1.6072   4.2979   6.6867

          k =-0.7071 0.0000 0.0000 (  2100 PWs)   bands (ev):

   -16.7129 -16.7129 -16.6273 -16.6273 -16.5279 -16.5279 -16.4704 -16.4704
   -16.3770 -16.3770  -0.7471  -0.7471   5.1124   5.1124

          k =-0.7071 0.3536 0.0000 (  2148 PWs)   bands (ev):

   -16.7267 -16.7267 -16.5848 -16.5848 -16.5357 -16.5357 -16.5035 -16.5035
   -16.3647 -16.3647  -0.6492  -0.6492   4.2629   4.2629

     highest occupied level (ev):     8.1965

!    total energy              =    -426.15162321 Ry
     estimated scf accuracy    <       0.00000004 Ry

     The total energy is the sum of the following terms:
     one-electron contribution =    -279.23806538 Ry
     hartree contribution      =     165.13219338 Ry
     xc contribution           =    -114.55127615 Ry
     ewald contribution        =    -197.49447506 Ry

     convergence has been achieved in   6 iterations

     Forces acting on atoms (cartesian axes, Ry/au):

     atom    1 type  1   force =     0.00000000    0.00000000    0.00000000
     atom    2 type  1   force =    -0.00000000    0.00000000    0.00000000

     Total force =     0.000000     Total SCF correction =     0.000000


     Computing stress (Cartesian axis) and pressure

          total   stress  (Ry/bohr**3)                   (kbar)     P=       -2.92
  -0.00001986  -0.00000000  -0.00000000           -2.92       -0.00       -0.00
  -0.00000000  -0.00001986  -0.00000000           -0.00       -2.92       -0.00
  -0.00000000  -0.00000000  -0.00001986           -0.00       -0.00       -2.92

     Message from routine punch:
     Nothing written, as per user request (disk_io='none')

     init_run     :      0.93s CPU      0.96s WALL (       1 calls)
     electrons    :      3.62s CPU      4.01s WALL (       1 calls)
     forces       :      0.12s CPU      0.14s WALL (       1 calls)
     stress       :      0.87s CPU      0.95s WALL (       1 calls)

     Called by init_run:
     wfcinit      :      0.33s CPU      0.33s WALL (       1 calls)
     potinit      :      0.03s CPU      0.03s WALL (       1 calls)
     hinit0       :      0.48s CPU      0.48s WALL (       1 calls)

     Called by electrons:
     c_bands      :      2.28s CPU      2.31s WALL (       7 calls)
     sum_band     :      0.96s CPU      1.15s WALL (       7 calls)
     v_of_rho     :      0.03s CPU      0.03s WALL (       7 calls)
     newd         :      0.42s CPU      0.60s WALL (       7 calls)
     mix_rho      :      0.01s CPU      0.01s WALL (       7 calls)

     Called by c_bands:
     init_us_2    :      0.11s CPU      0.12s WALL (     136 calls)
     cegterg      :      2.05s CPU      2.07s WALL (      56 calls)

     Called by *egterg:
     cdiaghg      :      0.05s CPU      0.05s WALL (     187 calls)
     h_psi        :      2.00s CPU      2.01s WALL (     203 calls)
     s_psi        :      0.06s CPU      0.06s WALL (     203 calls)
     g_psi        :      0.01s CPU      0.01s WALL (     139 calls)

     Called by h_psi:
     h_psi:calbec :      0.08s CPU      0.08s WALL (     203 calls)
     vloc_psi     :      1.84s CPU      1.85s WALL (     203 calls)
     add_vuspsi   :      0.07s CPU      0.07s WALL (     203 calls)

     General routines
     calbec       :      0.15s CPU      0.15s WALL (     395 calls)
     fft          :      0.24s CPU      0.24s WALL (      37 calls)
     ffts         :      0.00s CPU      0.00s WALL (       7 calls)
     fftw         :      1.84s CPU      1.85s WALL (    5016 calls)

     Parallel routines

     PWSCF        :      5.69s CPU      6.22s WALL


   This run was terminated on:  23:57:49   7Oct2025            

=------------------------------------------------------------------------------=
   JOB DONE.
=------------------------------------------------------------------------------=
