LAMMPS (22 Jul 2025 - Update 1)
Reading data file ...
  orthogonal box = (0 0 0) to (12.244965 8.6584976 20.101581)
  1 by 1 by 1 MPI processor grid
  reading atoms ...
  72 atoms
  read_data CPU = 0.001 seconds
Reading eam/alloy potential file /home/bond/Software/LAMMPS/lammps-22Jul2025/potentials/Al_zhou.eam.alloy with DATE: 2007-10-12
WARNING: No fixes with time integration, atoms won't move
For more information see https://docs.lammps.org/err0028 (../verlet.cpp:60)
Neighbor list info ...
  update: every = 1 steps, delay = 0 steps, check = yes
  max neighbors/atom: 2000, page size: 100000
  master list distance cutoff = 12.1025
  ghost atom cutoff = 12.1025
  binsize = 6.05125, bins = 3 2 4
  1 neighbor lists, perpetual/occasional/extra = 1 0 0
  (1) pair eam/alloy, perpetual
      attributes: half, newton on
      pair build: half/bin/atomonly/newton
      stencil: half/bin/3d
      bin: standard
Setting up Verlet run ...
  Unit style    : metal
  Current step  : 0
  Time step     : 0.001
Per MPI rank memory allocation (min/avg/max) = 3.326 | 3.326 | 3.326 Mbytes
   Step         PotEng           Lx             Ly             Lz           Press           Pxx            Pyy            Pzz      
         0  -244.76048      12.244965      8.6584976      20.101581     -19589.907     -24083.774     -22582.907     -12103.041    
Loop time of 1.992e-06 on 1 procs for 0 steps with 72 atoms

200.8% CPU use with 1 MPI tasks x no OpenMP threads

MPI task timing breakdown:
Section |  min time  |  avg time  |  max time  |%varavg| %total
---------------------------------------------------------------
Pair    | 0          | 0          | 0          |   0.0 |  0.00
Neigh   | 0          | 0          | 0          |   0.0 |  0.00
Comm    | 0          | 0          | 0          |   0.0 |  0.00
Output  | 0          | 0          | 0          |   0.0 |  0.00
Modify  | 0          | 0          | 0          |   0.0 |  0.00
Other   |            | 1.992e-06  |            |       |100.00

Nlocal:             72 ave          72 max          72 min
Histogram: 1 0 0 0 0 0 0 0 0 0
Nghost:            708 ave         708 max         708 min
Histogram: 1 0 0 0 0 0 0 0 0 0
Neighs:           9396 ave        9396 max        9396 min
Histogram: 1 0 0 0 0 0 0 0 0 0

Total # of neighbors = 9396
Ave neighs/atom = 130.5
Neighbor list builds = 0
Dangerous builds = 0
Setting up cg style minimization ...
  Unit style    : metal
  Current step  : 0
Per MPI rank memory allocation (min/avg/max) = 4.451 | 4.451 | 4.451 Mbytes
   Step         PotEng           Lx             Ly             Lz           Press           Pxx            Pyy            Pzz      
         0  -244.76048      12.244965      8.6584976      20.101581     -19589.907     -24083.774     -22582.907     -12103.041    
         8  -245.13871      12.244965      8.6584976      20.101581     -9352.7058     -14013.733     -14044.365     -0.019850627  
Loop time of 0.0105894 on 1 procs for 8 steps with 72 atoms

100.0% CPU use with 1 MPI tasks x no OpenMP threads

Minimization stats:
  Stopping criterion = energy tolerance
  Energy initial, next-to-last, final = 
     -244.760483110501  -245.138706010396  -245.138706016095
  Force two-norm initial, final = 1.5678708 4.5005649e-05
  Force max component initial, final = 0.32281171 7.3212274e-06
  Final line search alpha, max atom move = 1 7.3212274e-06
  Iterations, force evaluations = 8 16

MPI task timing breakdown:
Section |  min time  |  avg time  |  max time  |%varavg| %total
---------------------------------------------------------------
Pair    | 0.010387   | 0.010387   | 0.010387   |   0.0 | 98.09
Neigh   | 0          | 0          | 0          |   0.0 |  0.00
Comm    | 8.0519e-05 | 8.0519e-05 | 8.0519e-05 |   0.0 |  0.76
Output  | 0          | 0          | 0          |   0.0 |  0.00
Modify  | 0          | 0          | 0          |   0.0 |  0.00
Other   |            | 0.0001216  |            |       |  1.15

Nlocal:             72 ave          72 max          72 min
Histogram: 1 0 0 0 0 0 0 0 0 0
Nghost:            708 ave         708 max         708 min
Histogram: 1 0 0 0 0 0 0 0 0 0
Neighs:           9396 ave        9396 max        9396 min
Histogram: 1 0 0 0 0 0 0 0 0 0

Total # of neighbors = 9396
Ave neighs/atom = 130.5
Neighbor list builds = 0
Dangerous builds = 0
Total energy (eV) = -245.138706016095
Number of atoms = 72
Lattice constant (Angstoms) = 12.2449647145904
Total wall time: 0:00:00
