
     Program PWSCF v.7.4.1 starts on  9Oct2025 at 13: 2: 1 

     This program is part of the open-source Quantum ESPRESSO suite
     for quantum simulation of materials; please cite
         "P. Giannozzi et al., J. Phys.:Condens. Matter 21 395502 (2009);
         "P. Giannozzi et al., J. Phys.:Condens. Matter 29 465901 (2017);
         "P. Giannozzi et al., J. Chem. Phys. 152 154105 (2020);
          URL http://www.quantum-espresso.org", 
     in publications or presentations arising from this work. More details at
     http://www.quantum-espresso.org/quote

     Parallel version (MPI), running on     1 processors

     MPI processes distributed on     1 nodes
     209 MiB available memory on the printing compute node when the environment starts

     Waiting for input...
     Reading input from standard input
Warning: card &CELL ignored
Warning: card / ignored

     Current dimensions of program PWSCF are:
     Max number of different atomic species (ntypx) = 10
     Max number of k-points (npk) =  40000
     Max angular momentum in pseudopotentials (lmaxx) =  4
     Message from routine setup:
     using ibrav=0 with symmetry is DISCOURAGED, use correct ibrav instead

     Subspace diagonalization in iterative solution of the eigenvalue problem:
     a serial algorithm will be used


     G-vector sticks info
     --------------------
     sticks:   dense  smooth     PW     G-vecs:    dense   smooth      PW
     Sum         475     475    151                 6855     6855    1243

     Using Slab Decomposition



     bravais-lattice index     =            0
     lattice parameter (alat)  =       7.5872  a.u.
     unit-cell volume          =     308.8323 (a.u.)^3
     number of atoms/cell      =            2
     number of atomic types    =            1
     number of electrons       =        28.00
     number of Kohn-Sham states=           14
     kinetic-energy cutoff     =      30.0000  Ry
     charge density cutoff     =     120.0000  Ry
     scf convergence threshold =      1.0E-07
     mixing beta               =       0.5000
     number of iterations used =            8  plain     mixing
     Exchange-correlation=  SLA  PZ   NOGX NOGC
                           (   1   1   0   0   0   0   0)

     celldm(1)=   7.587160  celldm(2)=   0.000000  celldm(3)=   0.000000
     celldm(4)=   0.000000  celldm(5)=   0.000000  celldm(6)=   0.000000

     crystal axes: (cart. coord. in units of alat)
               a(1) = (   0.000000   0.707107   0.707107 )  
               a(2) = (   0.707107   0.000000   0.707107 )  
               a(3) = (   0.707107   0.707107   0.000000 )  

     reciprocal axes: (cart. coord. in units 2 pi/alat)
               b(1) = ( -0.707107  0.707107  0.707107 )  
               b(2) = (  0.707107 -0.707107  0.707107 )  
               b(3) = (  0.707107  0.707107 -0.707107 )  


     PseudoPot. # 1 for Ge read from file:
     /home/bond/Software/QE/qe-7.4.1/pseudo/ge_lda_v1.4.uspp.F.UPF
     MD5 check sum: bf9d52b59cc8a669818bb2b52e0c2ba0
     Pseudo is Ultrasoft + core correction, Zval = 14.0
     Generated by new atomic code, or converted to UPF format
     Using radial grid of  873 points,  6 beta functions with: 
                l(1) =   0
                l(2) =   0
                l(3) =   1
                l(4) =   1
                l(5) =   2
                l(6) =   2
     Q(r) pseudized with  8 coefficients,  rinner =    1.400   1.400   1.400
                                                       1.400   1.400

     atomic species   valence    mass     pseudopotential
     Ge               14.00    72.63000     Ge( 1.00)

     48 Sym. Ops., with inversion, found (24 have fractional translation)



   Cartesian axes

     site n.     atom                  positions (alat units)
         1        Ge     tau(   1) = (   0.0000000   0.0000000   0.0000000  )
         2        Ge     tau(   2) = (   0.3535534   0.3535534   0.3535534  )

     number of k points=     8
                       cart. coord. in units 2pi/alat
        k(    1) = (   0.0000000   0.0000000   0.0000000), wk =   0.0312500
        k(    2) = (   0.1767767   0.1767767  -0.1767767), wk =   0.2500000
        k(    3) = (  -0.3535534  -0.3535534   0.3535534), wk =   0.1250000
        k(    4) = (   0.3535534   0.0000000   0.0000000), wk =   0.1875000
        k(    5) = (  -0.1767767  -0.5303301   0.5303301), wk =   0.7500000
        k(    6) = (   0.0000000  -0.3535534   0.3535534), wk =   0.3750000
        k(    7) = (  -0.7071068   0.0000000   0.0000000), wk =   0.0937500
        k(    8) = (  -0.7071068   0.3535534   0.0000000), wk =   0.1875000

     Dense  grid:     6855 G-vectors     FFT dimensions: (  32,  32,  32)

     Estimated max dynamical RAM per process >      29.12 MB

     Check: negative core charge=   -0.000135

     Initial potential from superposition of free atoms

     starting charge      27.9986, renormalised to      28.0000
     Starting wfcs are   18 randomized atomic wfcs

     total cpu time spent up to now is        0.6 secs

     Self-consistent Calculation

     iteration #  1     ecut=    30.00 Ry     beta= 0.50
     Davidson diagonalization with overlap
     ethr =  1.00E-02,  avg # of iterations =  1.6

     Threshold (ethr) on eigenvalues was too large:
     Diagonalizing with lowered threshold

     Davidson diagonalization with overlap
     ethr =  1.33E-04,  avg # of iterations =  1.9

     total cpu time spent up to now is        0.9 secs

     total energy              =    -426.11947859 Ry
     estimated scf accuracy    <       0.03998744 Ry

     iteration #  2     ecut=    30.00 Ry     beta= 0.50
     Davidson diagonalization with overlap
     ethr =  1.43E-04,  avg # of iterations =  1.1

     total cpu time spent up to now is        1.1 secs

     total energy              =    -426.11809994 Ry
     estimated scf accuracy    <       0.00689600 Ry

     iteration #  3     ecut=    30.00 Ry     beta= 0.50
     Davidson diagonalization with overlap
     ethr =  2.46E-05,  avg # of iterations =  2.0

     total cpu time spent up to now is        1.2 secs

     total energy              =    -426.11861733 Ry
     estimated scf accuracy    <       0.00007277 Ry

     iteration #  4     ecut=    30.00 Ry     beta= 0.50
     Davidson diagonalization with overlap
     ethr =  2.60E-07,  avg # of iterations =  3.6

     total cpu time spent up to now is        1.4 secs

     total energy              =    -426.11863515 Ry
     estimated scf accuracy    <       0.00000659 Ry

     iteration #  5     ecut=    30.00 Ry     beta= 0.50
     Davidson diagonalization with overlap
     ethr =  2.35E-08,  avg # of iterations =  2.1

     total cpu time spent up to now is        1.6 secs

     End of self-consistent calculation

          k = 0.0000 0.0000 0.0000 (   869 PWs)   bands (ev):

   -16.8859 -16.8859 -16.8859 -16.8630 -16.8630 -16.6676 -16.6676 -16.6676
   -16.6446 -16.6446  -4.6858   7.7704   8.0575   8.0575

          k = 0.1768 0.1768-0.1768 (   860 PWs)   bands (ev):

   -16.9078 -16.9078 -16.8806 -16.8306 -16.8306 -16.6802 -16.6802 -16.6700
   -16.6271 -16.6271  -3.9518   3.2879   7.1831   7.1831

          k =-0.3536-0.3536 0.3536 (   862 PWs)   bands (ev):

   -16.9097 -16.9097 -16.8790 -16.8218 -16.8218 -16.6904 -16.6904 -16.6750
   -16.6222 -16.6222  -2.6239   0.4512   6.6665   6.6665

          k = 0.3536 0.0000 0.0000 (   849 PWs)   bands (ev):

   -16.9026 -16.9026 -16.9003 -16.8204 -16.7917 -16.7427 -16.6720 -16.6312
   -16.6283 -16.6283  -3.6865   3.2619   6.0387   6.0387

          k =-0.1768-0.5303 0.5303 (   855 PWs)   bands (ev):

   -16.9326 -16.9143 -16.8575 -16.7907 -16.7750 -16.7547 -16.7097 -16.6784
   -16.6089 -16.5971  -2.2162   0.6431   4.3431   5.6777

          k = 0.0000-0.3536 0.3536 (   847 PWs)   bands (ev):

   -16.9238 -16.9200 -16.8448 -16.8141 -16.7861 -16.7175 -16.6998 -16.6867
   -16.6092 -16.6015  -2.8228   1.4878   4.2076   6.5668

          k =-0.7071 0.0000 0.0000 (   846 PWs)   bands (ev):

   -16.9160 -16.9160 -16.8436 -16.8436 -16.7465 -16.7465 -16.6889 -16.6889
   -16.5996 -16.5996  -0.8462  -0.8462   5.0118   5.0118

          k =-0.7071 0.3536 0.0000 (   876 PWs)   bands (ev):

   -16.9392 -16.9392 -16.8064 -16.8064 -16.7611 -16.7611 -16.7270 -16.7270
   -16.5974 -16.5974  -0.7516  -0.7516   4.1754   4.1754

     highest occupied level (ev):     8.0575

!    total energy              =    -426.11863625 Ry
     estimated scf accuracy    <       0.00000010 Ry

     The total energy is the sum of the following terms:
     one-electron contribution =    -280.23152411 Ry
     hartree contribution      =     165.40841782 Ry
     xc contribution           =    -114.49670292 Ry
     ewald contribution        =    -196.79882704 Ry

     convergence has been achieved in   5 iterations

     Forces acting on atoms (cartesian axes, Ry/au):

     atom    1 type  1   force =     0.00000000    0.00000000    0.00000000
     atom    2 type  1   force =     0.00000000    0.00000000    0.00000000

     Total force =     0.000000     Total SCF correction =     0.000000


     Computing stress (Cartesian axis) and pressure

          total   stress  (Ry/bohr**3)                   (kbar)     P=     -151.54
  -0.00103013   0.00000000   0.00000000         -151.54        0.00        0.00
   0.00000000  -0.00103013   0.00000000            0.00     -151.54        0.00
   0.00000000   0.00000000  -0.00103013            0.00        0.00     -151.54

     Message from routine punch:
     Nothing written, as per user request (disk_io='none')

     init_run     :      0.48s CPU      0.49s WALL (       1 calls)
     electrons    :      1.01s CPU      1.04s WALL (       1 calls)
     forces       :      0.03s CPU      0.03s WALL (       1 calls)
     stress       :      0.24s CPU      0.24s WALL (       1 calls)

     Called by init_run:
     wfcinit      :      0.18s CPU      0.18s WALL (       1 calls)
     potinit      :      0.01s CPU      0.01s WALL (       1 calls)
     hinit0       :      0.27s CPU      0.27s WALL (       1 calls)

     Called by electrons:
     c_bands      :      0.67s CPU      0.69s WALL (       6 calls)
     sum_band     :      0.24s CPU      0.25s WALL (       6 calls)
     v_of_rho     :      0.01s CPU      0.01s WALL (       6 calls)
     newd         :      0.09s CPU      0.10s WALL (       6 calls)
     mix_rho      :      0.00s CPU      0.00s WALL (       6 calls)

     Called by c_bands:
     init_us_2    :      0.03s CPU      0.03s WALL (     120 calls)
     cegterg      :      0.62s CPU      0.63s WALL (      48 calls)

     Called by *egterg:
     cdiaghg      :      0.02s CPU      0.02s WALL (     139 calls)
     h_psi        :      0.70s CPU      0.71s WALL (     155 calls)
     s_psi        :      0.01s CPU      0.01s WALL (     155 calls)
     g_psi        :      0.00s CPU      0.00s WALL (      99 calls)

     Called by h_psi:
     h_psi:calbec :      0.02s CPU      0.02s WALL (     155 calls)
     vloc_psi     :      0.66s CPU      0.68s WALL (     155 calls)
     add_vuspsi   :      0.01s CPU      0.01s WALL (     155 calls)

     General routines
     calbec       :      0.03s CPU      0.04s WALL (     339 calls)
     fft          :      0.14s CPU      0.14s WALL (      33 calls)
     ffts         :      0.00s CPU      0.00s WALL (       6 calls)
     fftw         :      0.66s CPU      0.68s WALL (    4134 calls)

     Parallel routines

     PWSCF        :      1.83s CPU      1.88s WALL


   This run was terminated on:  13: 2: 3   9Oct2025            

=------------------------------------------------------------------------------=
   JOB DONE.
=------------------------------------------------------------------------------=
