
     Program PWSCF v.7.4.1 starts on 21Oct2025 at 17:33:14 

     This program is part of the open-source Quantum ESPRESSO suite
     for quantum simulation of materials; please cite
         "P. Giannozzi et al., J. Phys.:Condens. Matter 21 395502 (2009);
         "P. Giannozzi et al., J. Phys.:Condens. Matter 29 465901 (2017);
         "P. Giannozzi et al., J. Chem. Phys. 152 154105 (2020);
          URL http://www.quantum-espresso.org", 
     in publications or presentations arising from this work. More details at
     http://www.quantum-espresso.org/quote

     Parallel version (MPI), running on     2 processors

     MPI processes distributed on     1 nodes
     207 MiB available memory on the printing compute node when the environment starts

     Waiting for input...
     Reading input from standard input

     Current dimensions of program PWSCF are:
     Max number of different atomic species (ntypx) = 10
     Max number of k-points (npk) =  40000
     Max angular momentum in pseudopotentials (lmaxx) =  4
     Message from routine setup:
     using ibrav=0 with symmetry is DISCOURAGED, use correct ibrav instead

     R & G space division:  proc/nbgrp/npool/nimage =       2
     Subspace diagonalization in iterative solution of the eigenvalue problem:
     a serial algorithm will be used


     Parallelization info
     --------------------
     sticks:   dense  smooth     PW     G-vecs:    dense   smooth      PW
     Min         318     156     54                 5208     1847     373
     Max         319     157     55                 5209     1848     376
     Sum         637     313    109                10417     3695     749

     Using Slab Decomposition



     bravais-lattice index     =            0
     lattice parameter (alat)  =       5.3450  a.u.
     unit-cell volume          =     107.9734 (a.u.)^3
     number of atoms/cell      =            1
     number of atomic types    =            1
     number of electrons       =        11.00
     number of Kohn-Sham states=           10
     kinetic-energy cutoff     =      40.0000  Ry
     charge density cutoff     =     320.0000  Ry
     scf convergence threshold =      1.0E-07
     mixing beta               =       0.7000
     number of iterations used =            8  plain     mixing
     energy convergence thresh.=      1.0E-04
     force convergence thresh. =      1.0E-03
     press convergence thresh. =      5.0E-01
     Exchange-correlation=  SLA  PZ   NOGX NOGC
                           (   1   1   0   0   0   0   0)
     nstep                     =           50


     celldm(1)=   5.344953  celldm(2)=   0.000000  celldm(3)=   0.000000
     celldm(4)=   0.000000  celldm(5)=   0.000000  celldm(6)=   0.000000

     crystal axes: (cart. coord. in units of alat)
               a(1) = (   0.000000   0.707107   0.707107 )  
               a(2) = (   0.707107   0.000000   0.707107 )  
               a(3) = (   0.707107   0.707107   0.000000 )  

     reciprocal axes: (cart. coord. in units 2 pi/alat)
               b(1) = ( -0.707107  0.707107  0.707107 )  
               b(2) = (  0.707107 -0.707107  0.707107 )  
               b(3) = (  0.707107  0.707107 -0.707107 )  


     PseudoPot. # 1 for Au read from file:
     /home/bond/Software/QE/qe-7.4.1/pseudo/Au.pz-d-rrkjus.UPF
     MD5 check sum: 424ffd4ac9c90487cbadcd287136c95b
     Pseudo is Ultrasoft, Zval = 11.0
     Generated by new atomic code, or converted to UPF format
     Using radial grid of 1279 points,  3 beta functions with: 
                l(1) =   2
                l(2) =   2
                l(3) =   1
     Q(r) pseudized with 0 coefficients 


     atomic species   valence    mass     pseudopotential
     Au               11.00   196.96657     Au( 1.00)

     48 Sym. Ops., with inversion, found



   Cartesian axes

     site n.     atom                  positions (alat units)
         1        Au     tau(   1) = (   0.0000000   0.0000000   0.0000000  )

     number of k points=    19  Methfessel-Paxton smearing, width (Ry)=  0.0200
                       cart. coord. in units 2pi/alat
        k(    1) = (   0.0707107   0.0707107   0.0707107), wk =   0.0320000
        k(    2) = (   0.2121320   0.2121320  -0.0707107), wk =   0.0960000
        k(    3) = (  -0.3535534  -0.3535534   0.4949747), wk =   0.0960000
        k(    4) = (  -0.2121320  -0.2121320   0.3535534), wk =   0.0960000
        k(    5) = (  -0.0707107  -0.0707107   0.2121320), wk =   0.0960000
        k(    6) = (   0.3535534   0.0707107   0.0707107), wk =   0.0960000
        k(    7) = (  -0.2121320  -0.4949747   0.6363961), wk =   0.1920000
        k(    8) = (  -0.0707107  -0.3535534   0.4949747), wk =   0.1920000
        k(    9) = (   0.0707107  -0.2121320   0.3535534), wk =   0.1920000
        k(   10) = (  -0.7778175   0.0707107   0.0707107), wk =   0.0960000
        k(   11) = (  -0.6363961   0.2121320  -0.0707107), wk =   0.1920000
        k(   12) = (  -0.4949747   0.3535534  -0.2121320), wk =   0.0960000
        k(   13) = (  -0.4949747   0.0707107   0.0707107), wk =   0.0960000
        k(   14) = (   0.2121320   0.2121320   0.2121320), wk =   0.0320000
        k(   15) = (  -0.3535534  -0.3535534   0.7778175), wk =   0.0960000
        k(   16) = (  -0.2121320  -0.2121320   0.6363961), wk =   0.0960000
        k(   17) = (  -0.9192388   0.2121320   0.2121320), wk =   0.0960000
        k(   18) = (  -0.7778175   0.3535534   0.0707107), wk =   0.0960000
        k(   19) = (  -0.3535534  -0.3535534  -0.3535534), wk =   0.0160000

     Dense  grid:    10417 G-vectors     FFT dimensions: (  32,  32,  32)

     Smooth grid:     3695 G-vectors     FFT dimensions: (  24,  24,  24)

     Estimated max dynamical RAM per process >      14.45 MB

     Estimated total dynamical RAM >      28.90 MB

     Initial potential from superposition of free atoms

     starting charge      10.9999, renormalised to      11.0000
     Starting wfcs are    9 randomized atomic wfcs +    1 random wfcs

     total cpu time spent up to now is        1.3 secs

     Self-consistent Calculation

     iteration #  1     ecut=    40.00 Ry     beta= 0.70
     Davidson diagonalization with overlap
     ethr =  1.00E-02,  avg # of iterations =  5.8

     Threshold (ethr) on eigenvalues was too large:
     Diagonalizing with lowered threshold

     Davidson diagonalization with overlap
     ethr =  6.82E-04,  avg # of iterations =  1.0

     total cpu time spent up to now is        1.9 secs

     total energy              =     -66.84543059 Ry
     estimated scf accuracy    <       0.07618621 Ry

     iteration #  2     ecut=    40.00 Ry     beta= 0.70
     Davidson diagonalization with overlap
     ethr =  6.93E-04,  avg # of iterations =  2.0

     total cpu time spent up to now is        2.1 secs

     total energy              =     -66.86800237 Ry
     estimated scf accuracy    <       0.02315754 Ry

     iteration #  3     ecut=    40.00 Ry     beta= 0.70
     Davidson diagonalization with overlap
     ethr =  2.11E-04,  avg # of iterations =  1.7

     total cpu time spent up to now is        2.3 secs

     total energy              =     -66.87244816 Ry
     estimated scf accuracy    <       0.00002846 Ry

     iteration #  4     ecut=    40.00 Ry     beta= 0.70
     Davidson diagonalization with overlap
     ethr =  2.59E-07,  avg # of iterations =  2.6

     total cpu time spent up to now is        2.5 secs

     total energy              =     -66.87246491 Ry
     estimated scf accuracy    <       0.00000294 Ry

     iteration #  5     ecut=    40.00 Ry     beta= 0.70
     Davidson diagonalization with overlap
     ethr =  2.67E-08,  avg # of iterations =  1.0

     total cpu time spent up to now is        2.7 secs

     End of self-consistent calculation

          k = 0.0707 0.0707 0.0707 (   471 PWs)   bands (ev):

     6.7683  11.8938  12.1379  12.1379  13.6567  13.6567  33.8019  35.0155
    37.6860  37.6860

          k = 0.2121 0.2121-0.0707 (   469 PWs)   bands (ev):

     8.4440  11.5395  12.3527  12.5454  13.3679  14.3813  29.5995  33.3717
    36.4787  38.6674

          k =-0.3536-0.3536 0.4950 (   458 PWs)   bands (ev):

     9.3947  11.8472  12.1994  13.5674  14.7226  16.5625  21.6931  32.4888
    34.0122  35.7861

          k =-0.2121-0.2121 0.3536 (   458 PWs)   bands (ev):

     9.3337  11.9428  12.3571  12.5555  14.8888  15.2128  24.0794  33.3621
    34.5263  35.6730

          k =-0.0707-0.0707 0.2121 (   474 PWs)   bands (ev):

     7.6890  11.5022  12.4593  12.4982  13.2959  13.9633  32.3801  34.6788
    35.8899  37.6889

          k = 0.3536 0.0707 0.0707 (   466 PWs)   bands (ev):

     9.1476  10.8622  12.4008  13.1822  13.8728  14.4656  30.0950  32.8991
    34.2179  35.3440

          k =-0.2121-0.4950 0.6364 (   461 PWs)   bands (ev):

    10.2352  10.8778  11.9969  13.6877  14.7803  17.1816  24.8339  28.9694
    30.5336  36.9011

          k =-0.0707-0.3536 0.4950 (   459 PWs)   bands (ev):

    10.6545  11.1663  11.8819  13.3001  14.6091  18.7622  23.0422  27.2483
    31.3957  37.0045

          k = 0.0707-0.2121 0.3536 (   459 PWs)   bands (ev):

     9.6145  11.3052  11.9527  12.9426  13.9049  15.3991  27.1091  31.3180
    34.3305  37.3670

          k =-0.7778 0.0707 0.0707 (   458 PWs)   bands (ev):

     9.5677   9.9224  14.4491  14.7043  15.2993  18.1607  23.7960  27.0491
    28.3752  35.3507

          k =-0.6364 0.2121-0.0707 (   463 PWs)   bands (ev):

    10.0902  10.5176  12.8448  14.1200  15.2131  20.0506  22.8891  26.0136
    28.4303  37.2672

          k =-0.4950 0.3536-0.2121 (   458 PWs)   bands (ev):

     9.8734  11.4686  12.6128  12.8973  14.9438  18.8530  20.3104  31.3445
    31.8610  35.5309

          k =-0.4950 0.0707 0.0707 (   463 PWs)   bands (ev):

     9.7710  10.2729  13.2011  14.0395  14.9783  15.5567  27.2777  29.7553
    30.0959  35.1082

          k = 0.2121 0.2121 0.2121 (   471 PWs)   bands (ev):

     8.7678  12.2454  12.2454  12.2570  14.1852  14.1852  26.6692  33.9141
    37.4712  37.4712

          k =-0.3536-0.3536 0.7778 (   461 PWs)   bands (ev):

    10.1590  11.6040  11.9945  12.8108  13.9528  16.8114  24.7626  29.0883
    34.7562  36.1538

          k =-0.2121-0.2121 0.6364 (   455 PWs)   bands (ev):

    10.2290  11.0830  12.4473  13.5759  14.8397  20.4219  21.6150  26.1416
    31.5008  35.1735

          k =-0.9192 0.2121 0.2121 (   460 PWs)   bands (ev):

     9.9470  11.4051  12.3807  12.8741  15.1275  17.9605  21.8934  30.5584
    32.4832  34.5148

          k =-0.7778 0.3536 0.0707 (   462 PWs)   bands (ev):

    10.7026  11.2083  11.6364  13.5557  15.1859  21.0916  22.5622  25.4345
    28.0587  39.5335

          k =-0.3536-0.3536-0.3536 (   464 PWs)   bands (ev):

     9.1098  11.9635  11.9635  15.0592  15.0592  15.8034  20.3721  32.6146
    35.5465  35.5465

     the Fermi energy is    17.1050 ev

!    total energy              =     -66.87246508 Ry
     estimated scf accuracy    <       0.00000007 Ry
     smearing contrib. (-TS)   =      -0.00027307 Ry
     internal energy E=F+TS    =     -66.87219201 Ry

     The total energy is F=E-TS. E is the sum of the following terms:
     one-electron contribution =      10.18473309 Ry
     hartree contribution      =       6.82975640 Ry
     xc contribution           =     -10.49399463 Ry
     ewald contribution        =     -73.39268687 Ry

     convergence has been achieved in   5 iterations


     Computing stress (Cartesian axis) and pressure

          total   stress  (Ry/bohr**3)                   (kbar)     P=       74.54
   0.00050671  -0.00000000  -0.00000000           74.54       -0.00       -0.00
  -0.00000000   0.00050671  -0.00000000           -0.00       74.54       -0.00
  -0.00000000  -0.00000000   0.00050671           -0.00       -0.00       74.54


     BFGS Geometry Optimization
     Energy error            =      2.1E-03 Ry
     Gradient error          =      0.0E+00 Ry/Bohr
     Cell gradient error     =      7.5E+01 kbar

     number of scf cycles    =   1
     number of bfgs steps    =   0

     enthalpy           new  =     -66.8724650793 Ry

     new trust radius        =       0.0263263721 bohr
     new conv_thr            =       0.0000001000 Ry

     new unit-cell volume =    112.12892 a.u.^3 (    16.61579 Ang^3 )
     density =     19.68433 g/cm^3

CELL_PARAMETERS (angstrom)
  -0.000000000   2.025335689   2.025335689
   2.025335689  -0.000000000   2.025335689
   2.025335689   2.025335689  -0.000000000

ATOMIC_POSITIONS (angstrom)
Au               0.0000000000        0.0000000000        0.0000000000    0   0   0


     Message from routine punch:
     Nothing written, as per user request (disk_io='none')
     NEW-OLD atomic charge density approx. for the potential
     New effective cutoffs (rho, wfc):  309.93   38.99

     total cpu time spent up to now is        2.9 secs

     Self-consistent Calculation

     iteration #  1     ecut=    40.00 Ry     beta= 0.70
     Davidson diagonalization with overlap
     ethr =  1.00E-06,  avg # of iterations =  3.3

     Threshold (ethr) on eigenvalues was too large:
     Diagonalizing with lowered threshold

     Davidson diagonalization with overlap
     ethr =  1.63E-08,  avg # of iterations =  1.0

     total cpu time spent up to now is        3.4 secs

     total energy              =     -66.87344918 Ry
     estimated scf accuracy    <       0.00000174 Ry

     iteration #  2     ecut=    40.00 Ry     beta= 0.70
     Davidson diagonalization with overlap
     ethr =  1.58E-08,  avg # of iterations =  2.0

     total cpu time spent up to now is        3.7 secs

     total energy              =     -66.87344963 Ry
     estimated scf accuracy    <       0.00000054 Ry

     iteration #  3     ecut=    40.00 Ry     beta= 0.70
     Davidson diagonalization with overlap
     ethr =  4.88E-09,  avg # of iterations =  1.7

     total cpu time spent up to now is        3.9 secs

     End of self-consistent calculation

          k = 0.0698 0.0698 0.0698 (   471 PWs)   bands (ev):

     6.2635  11.2107  11.4387  11.4387  12.8611  12.8611  32.7433  33.8524
    36.4190  36.4190

          k = 0.2095 0.2095-0.0698 (   469 PWs)   bands (ev):

     7.8887  10.8819  11.6443  11.8227  12.5948  13.5430  28.3982  32.1413
    35.2742  37.4453

          k =-0.3491-0.3491 0.4888 (   458 PWs)   bands (ev):

     8.8367  11.1702  11.4994  12.8216  13.8609  15.6683  20.5896  31.3535
    32.8367  34.4497

          k =-0.2095-0.2095 0.3491 (   458 PWs)   bands (ev):

     8.7724  11.2602  11.6470  11.8557  14.0149  14.3542  22.9474  32.3158
    33.2163  34.3052

          k =-0.0698-0.0698 0.2095 (   474 PWs)   bands (ev):

     7.1546  10.8447  11.7423  11.7782  12.5272  13.1484  31.1656  33.5760
    34.5675  36.4517

          k = 0.3491 0.0698 0.0698 (   466 PWs)   bands (ev):

     8.5760  10.2436  11.6916  12.4214  13.0751  13.6185  28.8709  31.6307
    32.9991  34.0023

          k =-0.2095-0.4888 0.6284 (   461 PWs)   bands (ev):

     9.6471  10.2625  11.3131  12.8989  13.9174  16.2339  23.7187  27.7623
    29.3186  35.6155

          k =-0.0698-0.3491 0.4888 (   459 PWs)   bands (ev):

    10.0414  10.5380  11.2116  12.5357  13.7563  17.7660  21.9512  26.0687
    30.1650  35.7572

          k = 0.0698-0.2095 0.3491 (   459 PWs)   bands (ev):

     9.0308  10.6624  11.2714  12.1976  13.1015  14.5073  25.9346  30.0645
    33.1372  36.0446

          k =-0.7681 0.0698 0.0698 (   458 PWs)   bands (ev):

     9.0226   9.3570  13.6277  13.8435  14.3981  17.2566  22.6222  25.9461
    27.2760  34.0312

          k =-0.6284 0.2095-0.0698 (   463 PWs)   bands (ev):

     9.5181   9.9211  12.1181  13.3027  14.3187  19.0369  21.8112  24.8695
    27.2769  35.9363

          k =-0.4888 0.3491-0.2095 (   458 PWs)   bands (ev):

     9.2965  10.8185  11.8887  12.1778  14.0671  17.9335  19.2099  30.0750
    30.6962  34.3291

          k =-0.4888 0.0698 0.0698 (   463 PWs)   bands (ev):

     9.2056   9.6881  12.4562  13.2246  14.0978  14.6877  26.0986  28.5220
    28.9243  33.8223

          k = 0.2095 0.2095 0.2095 (   471 PWs)   bands (ev):

     8.2145  11.5413  11.5413  11.5698  13.3590  13.3590  25.4957  32.8769
    36.0615  36.0615

          k =-0.3491-0.3491 0.7681 (   461 PWs)   bands (ev):

     9.5621  10.9433  11.3235  12.0747  13.1428  15.8624  23.6278  27.8702
    33.6260  34.7695

          k =-0.2095-0.2095 0.6284 (   455 PWs)   bands (ev):

     9.6443  10.4603  11.7437  12.7925  13.9704  19.3784  20.5864  24.9686
    30.2716  33.9250

          k =-0.9077 0.2095 0.2095 (   460 PWs)   bands (ev):

     9.3687  10.7624  11.6819  12.1336  14.2374  17.0084  20.8258  29.3268
    31.2334  33.3228

          k =-0.7681 0.3491 0.0698 (   462 PWs)   bands (ev):

    10.1025  10.5702  10.9771  12.7755  14.2937  20.0060  21.5298  24.2984
    26.8816  38.2214

          k =-0.3491-0.3491-0.3491 (   464 PWs)   bands (ev):

     8.5661  11.2772  11.2772  14.1738  14.1738  15.0717  19.2500  31.6409
    34.2406  34.2406

     the Fermi energy is    16.1561 ev

!    total energy              =     -66.87344975 Ry
     estimated scf accuracy    <       0.00000001 Ry
     smearing contrib. (-TS)   =      -0.00024567 Ry
     internal energy E=F+TS    =     -66.87320407 Ry

     The total energy is F=E-TS. E is the sum of the following terms:
     one-electron contribution =       8.90465529 Ry
     hartree contribution      =       7.15668034 Ry
     xc contribution           =     -10.45994968 Ry
     ewald contribution        =     -72.47459003 Ry

     convergence has been achieved in   3 iterations


     Computing stress (Cartesian axis) and pressure

          total   stress  (Ry/bohr**3)                   (kbar)     P=       -3.98
  -0.00002706  -0.00000000  -0.00000000           -3.98       -0.00       -0.00
  -0.00000000  -0.00002706  -0.00000000           -0.00       -3.98       -0.00
  -0.00000000  -0.00000000  -0.00002706           -0.00       -0.00       -3.98

     Energy error            =      9.8E-04 Ry
     Gradient error          =      0.0E+00 Ry/Bohr
     Cell gradient error     =      4.0E+00 kbar

     number of scf cycles    =   2
     number of bfgs steps    =   1

     enthalpy           old  =     -66.8724650793 Ry
     enthalpy           new  =     -66.8734497459 Ry

     CASE: enthalpy          _new < enthalpy          _old

     new trust radius        =       0.0013753809 bohr
     new conv_thr            =       0.0000000010 Ry

     new unit-cell volume =    111.91060 a.u.^3 (    16.58344 Ang^3 )
     density =     19.72273 g/cm^3

CELL_PARAMETERS (angstrom)
  -0.000000000   2.024020370   2.024020370
   2.024020370  -0.000000000   2.024020370
   2.024020370   2.024020370  -0.000000000

ATOMIC_POSITIONS (angstrom)
Au               0.0000000000        0.0000000000        0.0000000000    0   0   0


     Message from routine punch:
     Nothing written, as per user request (disk_io='none')
     NEW-OLD atomic charge density approx. for the potential
     New effective cutoffs (rho, wfc):  310.33   39.04

     total cpu time spent up to now is        4.1 secs

     Self-consistent Calculation

     iteration #  1     ecut=    40.00 Ry     beta= 0.70
     Davidson diagonalization with overlap
     ethr =  1.00E-06,  avg # of iterations =  2.0

     Threshold (ethr) on eigenvalues was too large:
     Diagonalizing with lowered threshold

     Davidson diagonalization with overlap
     ethr =  1.05E-10,  avg # of iterations =  2.1

     total cpu time spent up to now is        4.6 secs

     total energy              =     -66.87345260 Ry
     estimated scf accuracy    <          9.0E-09 Ry

     iteration #  2     ecut=    40.00 Ry     beta= 0.70
     Davidson diagonalization with overlap
     ethr =  8.22E-11,  avg # of iterations =  2.0

     total cpu time spent up to now is        4.8 secs

     total energy              =     -66.87345260 Ry
     estimated scf accuracy    <          3.0E-09 Ry

     iteration #  3     ecut=    40.00 Ry     beta= 0.70
     Davidson diagonalization with overlap
     ethr =  2.69E-11,  avg # of iterations =  1.6

     total cpu time spent up to now is        5.0 secs

     End of self-consistent calculation

          k = 0.0699 0.0699 0.0699 (   471 PWs)   bands (ev):

     6.2891  11.2453  11.4742  11.4742  12.9013  12.9013  32.7975  33.9115
    36.4837  36.4837

          k = 0.2096 0.2096-0.0699 (   469 PWs)   bands (ev):

     7.9168  10.9153  11.6802  11.8594  12.6339  13.5854  28.4592  32.2040
    35.3352  37.5075

          k =-0.3494-0.3494 0.4891 (   458 PWs)   bands (ev):

     8.8651  11.2045  11.5349  12.8594  13.9045  15.7135  20.6453  31.4118
    32.8959  34.5176

          k =-0.2096-0.2096 0.3494 (   458 PWs)   bands (ev):

     8.8009  11.2948  11.6830  11.8912  14.0591  14.3976  23.0047  32.3690
    33.2829  34.3747

          k =-0.0699-0.0699 0.2096 (   474 PWs)   bands (ev):

     7.1816  10.8780  11.7787  11.8147  12.5661  13.1896  31.2274  33.6322
    34.6348  36.5146

          k = 0.3494 0.0699 0.0699 (   466 PWs)   bands (ev):

     8.6049  10.2750  11.7276  12.4599  13.1155  13.6613  28.9330  31.6951
    33.0614  34.0701

          k =-0.2096-0.4891 0.6288 (   461 PWs)   bands (ev):

     9.6770  10.2938  11.3478  12.9389  13.9610  16.2818  23.7752  27.8235
    29.3802  35.6808

          k =-0.0699-0.3494 0.4891 (   459 PWs)   bands (ev):

    10.0725  10.5699  11.2456  12.5744  13.7995  17.8164  22.0064  26.1285
    30.2274  35.8206

          k = 0.0699-0.2096 0.3494 (   459 PWs)   bands (ev):

     9.0604  10.6950  11.3059  12.2353  13.1422  14.5524  25.9941  30.1281
    33.1979  36.1118

          k =-0.7686 0.0699 0.0699 (   458 PWs)   bands (ev):

     9.0503   9.3857  13.6693  13.8870  14.4437  17.3023  22.6816  26.0020
    27.3318  34.0982

          k =-0.6288 0.2096-0.0699 (   463 PWs)   bands (ev):

     9.5472   9.9514  12.1550  13.3440  14.3639  19.0883  21.8658  24.9274
    27.3354  36.0039

          k =-0.4891 0.3494-0.2096 (   458 PWs)   bands (ev):

     9.3258  10.8515  11.9254  12.2143  14.1114  17.9800  19.2656  30.1395
    30.7555  34.3901

          k =-0.4891 0.0699 0.0699 (   463 PWs)   bands (ev):

     9.2343   9.7178  12.4939  13.2659  14.1423  14.7317  26.1585  28.5844
    28.9837  33.8875

          k = 0.2096 0.2096 0.2096 (   471 PWs)   bands (ev):

     8.2425  11.5770  11.5770  11.6047  13.4008  13.4008  25.5552  32.9296
    36.1331  36.1331

          k =-0.3494-0.3494 0.7686 (   461 PWs)   bands (ev):

     9.5924  10.9768  11.3575  12.1120  13.1838  15.9103  23.6852  27.9319
    33.6835  34.8398

          k =-0.2096-0.2096 0.6288 (   455 PWs)   bands (ev):

     9.6740  10.4919  11.7794  12.8322  14.0144  19.4313  20.6383  25.0280
    30.3340  33.9884

          k =-0.9083 0.2096 0.2096 (   460 PWs)   bands (ev):

     9.3981  10.7950  11.7174  12.1712  14.2823  17.0566  20.8798  29.3894
    31.2968  33.3833

          k =-0.7686 0.3494 0.0699 (   462 PWs)   bands (ev):

    10.1329  10.6026  11.0105  12.8150  14.3388  20.0610  21.5820  24.3559
    26.9412  38.2881

          k =-0.3494-0.3494-0.3494 (   464 PWs)   bands (ev):

     8.5938  11.3120  11.3120  14.2185  14.2185  15.1087  19.3067  31.6905
    34.3070  34.3070

     the Fermi energy is    16.2041 ev

!    total energy              =     -66.87345260 Ry
     estimated scf accuracy    <          3.4E-11 Ry
     smearing contrib. (-TS)   =      -0.00024725 Ry
     internal energy E=F+TS    =     -66.87320535 Ry

     The total energy is F=E-TS. E is the sum of the following terms:
     one-electron contribution =       8.97044570 Ry
     hartree contribution      =       7.13970930 Ry
     xc contribution           =     -10.46167236 Ry
     ewald contribution        =     -72.52168799 Ry

     convergence has been achieved in   3 iterations


     Computing stress (Cartesian axis) and pressure

          total   stress  (Ry/bohr**3)                   (kbar)     P=       -0.04
  -0.00000029   0.00000000  -0.00000000           -0.04        0.00       -0.00
   0.00000000  -0.00000029   0.00000000            0.00       -0.04        0.00
   0.00000000   0.00000000  -0.00000029            0.00        0.00       -0.04

     Energy error            =      2.9E-06 Ry
     Gradient error          =      0.0E+00 Ry/Bohr
     Cell gradient error     =      4.3E-02 kbar

     bfgs converged in   3 scf cycles and   2 bfgs steps
     (criteria: energy <  1.0E-04 Ry, force <  1.0E-03 Ry/Bohr, cell <  5.0E-01 kbar)

     End of BFGS Geometry Optimization

     Final enthalpy           =     -66.8734526045 Ry

     File /home/bond/Work/Lab4/Problem3/Au_nk_5/pwscf.bfgs deleted, as requested
Begin final coordinates
     new unit-cell volume =    111.91060 a.u.^3 (    16.58344 Ang^3 )
     density =     19.72273 g/cm^3

CELL_PARAMETERS (angstrom)
  -0.000000000   2.024020370   2.024020370
   2.024020370  -0.000000000   2.024020370
   2.024020370   2.024020370  -0.000000000

ATOMIC_POSITIONS (angstrom)
Au               0.0000000000        0.0000000000        0.0000000000    0   0   0
End final coordinates


     Message from routine punch:
     Nothing written, as per user request (disk_io='none')

     Final scf calculation at the relaxed structure.
     The G-vectors are recalculated for the final unit cell
     Results may differ from those at the preceding step.

     Parallelization info
     --------------------
     sticks:   dense  smooth     PW     G-vecs:    dense   smooth      PW
     Min         324     156     54                 5423     1917     373
     Max         325     157     55                 5426     1922     376
     Sum         649     313    109                10849     3839     749

     Using Slab Decomposition



     bravais-lattice index     =            0
     lattice parameter (alat)  =       5.3450  a.u.
     unit-cell volume          =     111.9106 (a.u.)^3
     number of atoms/cell      =            1
     number of atomic types    =            1
     number of electrons       =        11.00
     number of Kohn-Sham states=           10
     kinetic-energy cutoff     =      40.0000  Ry
     charge density cutoff     =     320.0000  Ry
     scf convergence threshold =      1.0E-09
     mixing beta               =       0.7000
     number of iterations used =            8  plain     mixing
     press convergence thresh. =      5.0E-01
     Exchange-correlation=  SLA  PZ   NOGX NOGC
                           (   1   1   0   0   0   0   0)

     celldm(1)=   5.344953  celldm(2)=   0.000000  celldm(3)=   0.000000
     celldm(4)=   0.000000  celldm(5)=   0.000000  celldm(6)=   0.000000

     crystal axes: (cart. coord. in units of alat)
               a(1) = (  -0.000000   0.715599   0.715599 )  
               a(2) = (   0.715599  -0.000000   0.715599 )  
               a(3) = (   0.715599   0.715599  -0.000000 )  

     reciprocal axes: (cart. coord. in units 2 pi/alat)
               b(1) = ( -0.698715  0.698715  0.698715 )  
               b(2) = (  0.698715 -0.698715  0.698715 )  
               b(3) = (  0.698715  0.698715 -0.698715 )  


     PseudoPot. # 1 for Au read from file:
     /home/bond/Software/QE/qe-7.4.1/pseudo/Au.pz-d-rrkjus.UPF
     MD5 check sum: 424ffd4ac9c90487cbadcd287136c95b
     Pseudo is Ultrasoft, Zval = 11.0
     Generated by new atomic code, or converted to UPF format
     Using radial grid of 1279 points,  3 beta functions with: 
                l(1) =   2
                l(2) =   2
                l(3) =   1
     Q(r) pseudized with 0 coefficients 


     atomic species   valence    mass     pseudopotential
     Au               11.00   196.96657     Au( 1.00)

     48 Sym. Ops., with inversion, found



   Cartesian axes

     site n.     atom                  positions (alat units)
         1        Au     tau(   1) = (   0.0000000   0.0000000   0.0000000  )

     number of k points=    19  Methfessel-Paxton smearing, width (Ry)=  0.0200
                       cart. coord. in units 2pi/alat
        k(    1) = (   0.0698715   0.0698715   0.0698715), wk =   0.0320000
        k(    2) = (   0.2096145   0.2096145  -0.0698715), wk =   0.0960000
        k(    3) = (  -0.3493575  -0.3493575   0.4891006), wk =   0.0960000
        k(    4) = (  -0.2096145  -0.2096145   0.3493575), wk =   0.0960000
        k(    5) = (  -0.0698715  -0.0698715   0.2096145), wk =   0.0960000
        k(    6) = (   0.3493575   0.0698715   0.0698715), wk =   0.0960000
        k(    7) = (  -0.2096145  -0.4891006   0.6288436), wk =   0.1920000
        k(    8) = (  -0.0698715  -0.3493575   0.4891006), wk =   0.1920000
        k(    9) = (   0.0698715  -0.2096145   0.3493575), wk =   0.1920000
        k(   10) = (  -0.7685866   0.0698715   0.0698715), wk =   0.0960000
        k(   11) = (  -0.6288436   0.2096145  -0.0698715), wk =   0.1920000
        k(   12) = (  -0.4891006   0.3493575  -0.2096145), wk =   0.0960000
        k(   13) = (  -0.4891006   0.0698715   0.0698715), wk =   0.0960000
        k(   14) = (   0.2096145   0.2096145   0.2096145), wk =   0.0320000
        k(   15) = (  -0.3493575  -0.3493575   0.7685866), wk =   0.0960000
        k(   16) = (  -0.2096145  -0.2096145   0.6288436), wk =   0.0960000
        k(   17) = (  -0.9083296   0.2096145   0.2096145), wk =   0.0960000
        k(   18) = (  -0.7685866   0.3493575   0.0698715), wk =   0.0960000
        k(   19) = (  -0.3493575  -0.3493575  -0.3493575), wk =   0.0160000

     Dense  grid:    10849 G-vectors     FFT dimensions: (  32,  32,  32)

     Smooth grid:     3839 G-vectors     FFT dimensions: (  24,  24,  24)

     Estimated max dynamical RAM per process >      15.01 MB

     Estimated total dynamical RAM >      30.02 MB

     Initial potential from superposition of free atoms

     starting charge      10.9999, renormalised to      11.0000
     Starting wfcs are    9 randomized atomic wfcs +    1 random wfcs

     total cpu time spent up to now is        5.3 secs

     Self-consistent Calculation

     iteration #  1     ecut=    40.00 Ry     beta= 0.70
     Davidson diagonalization with overlap
     ethr =  1.00E-06,  avg # of iterations = 11.5

     total cpu time spent up to now is        5.9 secs

     total energy              =     -66.84521274 Ry
     estimated scf accuracy    <       0.07808656 Ry

     iteration #  2     ecut=    40.00 Ry     beta= 0.70
     Davidson diagonalization with overlap
     ethr =  7.10E-04,  avg # of iterations =  2.0

     total cpu time spent up to now is        6.1 secs

     total energy              =     -66.86852568 Ry
     estimated scf accuracy    <       0.02584225 Ry

     iteration #  3     ecut=    40.00 Ry     beta= 0.70
     Davidson diagonalization with overlap
     ethr =  2.35E-04,  avg # of iterations =  1.7

     total cpu time spent up to now is        6.3 secs

     total energy              =     -66.87346086 Ry
     estimated scf accuracy    <       0.00002951 Ry

     iteration #  4     ecut=    40.00 Ry     beta= 0.70
     Davidson diagonalization with overlap
     ethr =  2.68E-07,  avg # of iterations =  2.0

     total cpu time spent up to now is        6.5 secs

     total energy              =     -66.87348019 Ry
     estimated scf accuracy    <       0.00000363 Ry

     iteration #  5     ecut=    40.00 Ry     beta= 0.70
     Davidson diagonalization with overlap
     ethr =  3.30E-08,  avg # of iterations =  1.0

     total cpu time spent up to now is        6.7 secs

     total energy              =     -66.87348039 Ry
     estimated scf accuracy    <       0.00000011 Ry

     iteration #  6     ecut=    40.00 Ry     beta= 0.70
     Davidson diagonalization with overlap
     ethr =  1.03E-09,  avg # of iterations =  2.0

     total cpu time spent up to now is        6.9 secs

     total energy              =     -66.87348041 Ry
     estimated scf accuracy    <          3.7E-09 Ry

     iteration #  7     ecut=    40.00 Ry     beta= 0.70
     Davidson diagonalization with overlap
     ethr =  3.34E-11,  avg # of iterations =  2.0

     total cpu time spent up to now is        7.1 secs

     End of self-consistent calculation

          k = 0.0699 0.0699 0.0699 (   495 PWs)   bands (ev):

     6.2891  11.2452  11.4741  11.4741  12.9012  12.9012  32.7974  33.9114
    36.4836  36.4836

          k = 0.2096 0.2096-0.0699 (   483 PWs)   bands (ev):

     7.9168  10.9152  11.6801  11.8592  12.6338  13.5853  28.4592  32.2039
    35.3352  37.5074

          k =-0.3494-0.3494 0.4891 (   475 PWs)   bands (ev):

     8.8650  11.2044  11.5347  12.8594  13.9044  15.7134  20.6453  31.4118
    32.8959  34.5176

          k =-0.2096-0.2096 0.3494 (   481 PWs)   bands (ev):

     8.8008  11.2947  11.6828  11.8911  14.0590  14.3975  23.0046  32.3690
    33.2829  34.3746

          k =-0.0699-0.0699 0.2096 (   483 PWs)   bands (ev):

     7.1817  10.8780  11.7786  11.8146  12.5660  13.1896  31.2274  33.6322
    34.6348  36.5146

          k = 0.3494 0.0699 0.0699 (   481 PWs)   bands (ev):

     8.6049  10.2749  11.7275  12.4598  13.1154  13.6613  28.9330  31.6951
    33.0614  34.0701

          k =-0.2096-0.4891 0.6288 (   474 PWs)   bands (ev):

     9.6769  10.2937  11.3477  12.9388  13.9609  16.2818  23.7752  27.8235
    29.3802  35.6808

          k =-0.0699-0.3494 0.4891 (   478 PWs)   bands (ev):

    10.0724  10.5698  11.2455  12.5743  13.7994  17.8163  22.0064  26.1285
    30.2274  35.8205

          k = 0.0699-0.2096 0.3494 (   480 PWs)   bands (ev):

     9.0603  10.6949  11.3058  12.2352  13.1420  14.5523  25.9941  30.1281
    33.1979  36.1117

          k =-0.7686 0.0699 0.0699 (   469 PWs)   bands (ev):

     9.0502   9.3856  13.6692  13.8869  14.4436  17.3023  22.6816  26.0020
    27.3318  34.0980

          k =-0.6288 0.2096-0.0699 (   476 PWs)   bands (ev):

     9.5471   9.9513  12.1549  13.3439  14.3638  19.0883  21.8658  24.9274
    27.3354  36.0038

          k =-0.4891 0.3494-0.2096 (   474 PWs)   bands (ev):

     9.3257  10.8514  11.9253  12.2143  14.1113  17.9800  19.2655  30.1394
    30.7555  34.3902

          k =-0.4891 0.0699 0.0699 (   471 PWs)   bands (ev):

     9.2343   9.7177  12.4939  13.2658  14.1422  14.7316  26.1585  28.5844
    28.9837  33.8875

          k = 0.2096 0.2096 0.2096 (   483 PWs)   bands (ev):

     8.2425  11.5769  11.5769  11.6046  13.4007  13.4007  25.5552  32.9296
    36.1331  36.1331

          k =-0.3494-0.3494 0.7686 (   477 PWs)   bands (ev):

     9.5924  10.9767  11.3575  12.1119  13.1836  15.9103  23.6852  27.9319
    33.6835  34.8397

          k =-0.2096-0.2096 0.6288 (   471 PWs)   bands (ev):

     9.6740  10.4918  11.7793  12.8321  14.0142  19.4313  20.6383  25.0280
    30.3340  33.9883

          k =-0.9083 0.2096 0.2096 (   477 PWs)   bands (ev):

     9.3980  10.7949  11.7173  12.1710  14.2823  17.0565  20.8798  29.3893
    31.2968  33.3832

          k =-0.7686 0.3494 0.0699 (   478 PWs)   bands (ev):

    10.1329  10.6024  11.0104  12.8149  14.3387  20.0610  21.5820  24.3559
    26.9411  38.2879

          k =-0.3494-0.3494-0.3494 (   476 PWs)   bands (ev):

     8.5937  11.3119  11.3119  14.2184  14.2184  15.1088  19.3067  31.6905
    34.3070  34.3070

     the Fermi energy is    16.2040 ev

!    total energy              =     -66.87348041 Ry
     estimated scf accuracy    <          4.4E-10 Ry
     smearing contrib. (-TS)   =      -0.00024724 Ry
     internal energy E=F+TS    =     -66.87323317 Ry

     The total energy is F=E-TS. E is the sum of the following terms:
     one-electron contribution =       8.97052303 Ry
     hartree contribution      =       7.13955253 Ry
     xc contribution           =     -10.46162074 Ry
     ewald contribution        =     -72.52168799 Ry

     convergence has been achieved in   7 iterations


     Computing stress (Cartesian axis) and pressure

          total   stress  (Ry/bohr**3)                   (kbar)     P=       -0.39
  -0.00000265   0.00000000   0.00000000           -0.39        0.00        0.00
   0.00000000  -0.00000265   0.00000000            0.00       -0.39        0.00
   0.00000000   0.00000000  -0.00000265            0.00        0.00       -0.39

     Message from routine punch:
     Nothing written, as per user request (disk_io='none')

     init_run     :      1.14s CPU      1.27s WALL (       2 calls)
     electrons    :      4.64s CPU      5.03s WALL (       4 calls)
     update_pot   :      0.01s CPU      0.01s WALL (       2 calls)
     stress       :      0.74s CPU      0.75s WALL (       4 calls)

     Called by init_run:
     wfcinit      :      0.12s CPU      0.16s WALL (       2 calls)
     potinit      :      0.21s CPU      0.22s WALL (       2 calls)
     hinit0       :      0.71s CPU      0.77s WALL (       2 calls)

     Called by electrons:
     c_bands      :      3.45s CPU      3.76s WALL (      21 calls)
     sum_band     :      0.89s CPU      0.95s WALL (      21 calls)
     v_of_rho     :      0.03s CPU      0.03s WALL (      22 calls)
     newd         :      0.32s CPU      0.33s WALL (      22 calls)
     mix_rho      :      0.01s CPU      0.01s WALL (      21 calls)

     Called by c_bands:
     init_us_2    :      0.07s CPU      0.08s WALL (     912 calls)
     cegterg      :      3.33s CPU      3.63s WALL (     399 calls)

     Called by *egterg:
     cdiaghg      :      0.22s CPU      0.25s WALL (    1292 calls)
     h_psi        :      2.92s CPU      3.21s WALL (    1425 calls)
     s_psi        :      0.02s CPU      0.02s WALL (    1425 calls)
     g_psi        :      0.01s CPU      0.01s WALL (     988 calls)

     Called by h_psi:
     h_psi:calbec :      0.09s CPU      0.09s WALL (    1425 calls)
     vloc_psi     :      2.78s CPU      3.05s WALL (    1425 calls)
     add_vuspsi   :      0.03s CPU      0.03s WALL (    1425 calls)

     General routines
     calbec       :      0.14s CPU      0.15s WALL (    2812 calls)
     fft          :      0.19s CPU      0.22s WALL (     137 calls)
     ffts         :      0.16s CPU      0.17s WALL (      43 calls)
     fftw         :      2.84s CPU      3.13s WALL (   25854 calls)
     interpolate  :      0.16s CPU      0.17s WALL (      22 calls)

     Parallel routines

     PWSCF        :      6.76s CPU      7.32s WALL


   This run was terminated on:  17:33:22  21Oct2025            

=------------------------------------------------------------------------------=
   JOB DONE.
=------------------------------------------------------------------------------=
