LAMMPS (22 Jul 2025 - Update 1)
Reading data file ...
  orthogonal box = (0 0 0) to (16.490092 16.490092 16.490092)
  1 by 1 by 1 MPI processor grid
  reading atoms ...
  255 atoms
  read_data CPU = 0.001 seconds
WARNING: No fixes with time integration, atoms won't move
For more information see https://docs.lammps.org/err0028 (../verlet.cpp:60)
Generated 0 of 0 mixed pair_coeff terms from geometric mixing rule
Neighbor list info ...
  update: every = 1 steps, delay = 0 steps, check = yes
  max neighbors/atom: 2000, page size: 100000
  master list distance cutoff = 6.5
  ghost atom cutoff = 6.5
  binsize = 3.25, bins = 6 6 6
  1 neighbor lists, perpetual/occasional/extra = 1 0 0
  (1) pair lj/cut, perpetual
      attributes: half, newton on
      pair build: half/bin/atomonly/newton
      stencil: half/bin/3d
      bin: standard
Setting up Verlet run ...
  Unit style    : metal
  Current step  : 0
  Time step     : 0.001
Per MPI rank memory allocation (min/avg/max) = 3.12 | 3.12 | 3.12 Mbytes
   Step         PotEng           Lx             Ly             Lz           Press           Pxx            Pyy            Pzz      
         0  -669.18958      16.490092      16.490092      16.490092     -0.025622663   -0.027485239   -0.021897509   -0.027485239  
Loop time of 1.438e-06 on 1 procs for 0 steps with 255 atoms

69.5% CPU use with 1 MPI tasks x no OpenMP threads

MPI task timing breakdown:
Section |  min time  |  avg time  |  max time  |%varavg| %total
---------------------------------------------------------------
Pair    | 0          | 0          | 0          |   0.0 |  0.00
Neigh   | 0          | 0          | 0          |   0.0 |  0.00
Comm    | 0          | 0          | 0          |   0.0 |  0.00
Output  | 0          | 0          | 0          |   0.0 |  0.00
Modify  | 0          | 0          | 0          |   0.0 |  0.00
Other   |            | 1.438e-06  |            |       |100.00

Nlocal:            255 ave         255 max         255 min
Histogram: 1 0 0 0 0 0 0 0 0 0
Nghost:           1424 ave        1424 max        1424 min
Histogram: 1 0 0 0 0 0 0 0 0 0
Neighs:           6858 ave        6858 max        6858 min
Histogram: 1 0 0 0 0 0 0 0 0 0

Total # of neighbors = 6858
Ave neighs/atom = 26.894118
Neighbor list builds = 0
Dangerous builds = 0
Generated 0 of 0 mixed pair_coeff terms from geometric mixing rule
Setting up cg style minimization ...
  Unit style    : metal
  Current step  : 0
WARNING: Energy due to 1 extra global DOFs will be included in minimizer energies
 (../min.cpp:222)
Per MPI rank memory allocation (min/avg/max) = 4.245 | 4.245 | 4.245 Mbytes
   Step         PotEng           Lx             Ly             Lz           Press           Pxx            Pyy            Pzz      
         0  -669.18958      16.490092      16.490092      16.490092     -0.025622663   -0.027485239   -0.021897509   -0.027485239  
        32  -669.1977       16.489769      16.489769      16.489769      0.2489767      0.24904896     0.24883218     0.24904896   
Loop time of 0.00810356 on 1 procs for 32 steps with 255 atoms

99.5% CPU use with 1 MPI tasks x no OpenMP threads

Minimization stats:
  Stopping criterion = energy tolerance
  Energy initial, next-to-last, final = 
     -669.189581632896   -669.19770380379  -669.197703803941
  Force two-norm initial, final = 0.45229902 0.0028165562
  Force max component initial, final = 0.13063076 0.0020903635
  Final line search alpha, max atom move = 0.59723669 0.0012484418
  Iterations, force evaluations = 32 64

MPI task timing breakdown:
Section |  min time  |  avg time  |  max time  |%varavg| %total
---------------------------------------------------------------
Pair    | 0.0057884  | 0.0057884  | 0.0057884  |   0.0 | 71.43
Neigh   | 0          | 0          | 0          |   0.0 |  0.00
Comm    | 0.00040776 | 0.00040776 | 0.00040776 |   0.0 |  5.03
Output  | 0          | 0          | 0          |   0.0 |  0.00
Modify  | 0          | 0          | 0          |   0.0 |  0.00
Other   |            | 0.001907   |            |       | 23.54

Nlocal:            255 ave         255 max         255 min
Histogram: 1 0 0 0 0 0 0 0 0 0
Nghost:           1424 ave        1424 max        1424 min
Histogram: 1 0 0 0 0 0 0 0 0 0
Neighs:           6858 ave        6858 max        6858 min
Histogram: 1 0 0 0 0 0 0 0 0 0

Total # of neighbors = 6858
Ave neighs/atom = 26.894118
Neighbor list builds = 0
Dangerous builds = 0
Total energy (eV) = -669.197703803941
Number of atoms = 255
Lattice constant (Angstoms) = 16.4897688340136
Total wall time: 0:00:00
