Header of the LAMMPS data file 

10975 atoms 
1 atom types

0.0 57.71532219291636  xlo xhi
0.0 57.71532219291636  ylo yhi
0.0 57.71532219291636  zlo zhi

Masses 

1  26.9815385

Atoms # atomic 

1 1 0.00000 0.00000 0.00000 
2 1 0.00000 2.06126 2.06126 
3 1 2.06126 2.06126 0.00000 
4 1 0.00000 0.00000 4.12252 
5 1 0.00000 2.06126 6.18378 
6 1 2.06126 0.00000 6.18378 
7 1 2.06126 2.06126 4.12252 
8 1 0.00000 0.00000 8.24505 
9 1 0.00000 2.06126 10.30631 
10 1 2.06126 0.00000 10.30631 
11 1 2.06126 2.06126 8.24505 
12 1 0.00000 0.00000 12.36757 
13 1 0.00000 2.06126 14.42883 
14 1 2.06126 0.00000 14.42883 
15 1 2.06126 2.06126 12.36757 
16 1 0.00000 0.00000 16.49009 
17 1 0.00000 2.06126 18.55135 
18 1 2.06126 0.00000 18.55135 
19 1 2.06126 2.06126 16.49009 
20 1 0.00000 0.00000 20.61262 
21 1 0.00000 2.06126 22.67388 
22 1 2.06126 0.00000 22.67388 
23 1 2.06126 2.06126 20.61262 
24 1 0.00000 0.00000 24.73514 
25 1 0.00000 2.06126 26.79640 
26 1 2.06126 0.00000 26.79640 
27 1 2.06126 2.06126 24.73514 
28 1 0.00000 0.00000 28.85766 
29 1 0.00000 2.06126 30.91892 
30 1 2.06126 0.00000 30.91892 
31 1 2.06126 2.06126 28.85766 
32 1 0.00000 0.00000 32.98018 
33 1 0.00000 2.06126 35.04145 
34 1 2.06126 0.00000 35.04145 
35 1 2.06126 2.06126 32.98018 
36 1 0.00000 0.00000 37.10271 
37 1 0.00000 2.06126 39.16397 
38 1 2.06126 0.00000 39.16397 
39 1 2.06126 2.06126 37.10271 
40 1 0.00000 0.00000 41.22523 
41 1 0.00000 2.06126 43.28649 
42 1 2.06126 0.00000 43.28649 
43 1 2.06126 2.06126 41.22523 
44 1 0.00000 0.00000 45.34775 
45 1 0.00000 2.06126 47.40901 
46 1 2.06126 0.00000 47.40901 
47 1 2.06126 2.06126 45.34775 
48 1 0.00000 0.00000 49.47028 
49 1 0.00000 2.06126 51.53154 
50 1 2.06126 0.00000 51.53154 
51 1 2.06126 2.06126 49.47028 
52 1 0.00000 0.00000 53.59280 
53 1 0.00000 2.06126 55.65406 
54 1 2.06126 0.00000 55.65406 
55 1 2.06126 2.06126 53.59280 
56 1 0.00000 4.12252 0.00000 
57 1 0.00000 6.18378 2.06126 
58 1 2.06126 4.12252 2.06126 
59 1 2.06126 6.18378 0.00000 
60 1 0.00000 4.12252 4.12252 
61 1 0.00000 6.18378 6.18378 
62 1 2.06126 4.12252 6.18378 
63 1 2.06126 6.18378 4.12252 
64 1 0.00000 4.12252 8.24505 
65 1 0.00000 6.18378 10.30631 
66 1 2.06126 4.12252 10.30631 
67 1 2.06126 6.18378 8.24505 
68 1 0.00000 4.12252 12.36757 
69 1 0.00000 6.18378 14.42883 
70 1 2.06126 4.12252 14.42883 
71 1 2.06126 6.18378 12.36757 
72 1 0.00000 4.12252 16.49009 
73 1 0.00000 6.18378 18.55135 
74 1 2.06126 4.12252 18.55135 
75 1 2.06126 6.18378 16.49009 
76 1 0.00000 4.12252 20.61262 
77 1 0.00000 6.18378 22.67388 
78 1 2.06126 4.12252 22.67388 
79 1 2.06126 6.18378 20.61262 
80 1 0.00000 4.12252 24.73514 
81 1 0.00000 6.18378 26.79640 
82 1 2.06126 4.12252 26.79640 
83 1 2.06126 6.18378 24.73514 
84 1 0.00000 4.12252 28.85766 
85 1 0.00000 6.18378 30.91892 
86 1 2.06126 4.12252 30.91892 
87 1 2.06126 6.18378 28.85766 
88 1 0.00000 4.12252 32.98018 
89 1 0.00000 6.18378 35.04145 
90 1 2.06126 4.12252 35.04145 
91 1 2.06126 6.18378 32.98018 
92 1 0.00000 4.12252 37.10271 
93 1 0.00000 6.18378 39.16397 
94 1 2.06126 4.12252 39.16397 
95 1 2.06126 6.18378 37.10271 
96 1 0.00000 4.12252 41.22523 
97 1 0.00000 6.18378 43.28649 
98 1 2.06126 4.12252 43.28649 
99 1 2.06126 6.18378 41.22523 
100 1 0.00000 4.12252 45.34775 
101 1 0.00000 6.18378 47.40901 
102 1 2.06126 4.12252 47.40901 
103 1 2.06126 6.18378 45.34775 
104 1 0.00000 4.12252 49.47028 
105 1 0.00000 6.18378 51.53154 
106 1 2.06126 4.12252 51.53154 
107 1 2.06126 6.18378 49.47028 
108 1 0.00000 4.12252 53.59280 
109 1 0.00000 6.18378 55.65406 
110 1 2.06126 4.12252 55.65406 
111 1 2.06126 6.18378 53.59280 
112 1 0.00000 8.24505 0.00000 
113 1 0.00000 10.30631 2.06126 
114 1 2.06126 8.24505 2.06126 
115 1 2.06126 10.30631 0.00000 
116 1 0.00000 8.24505 4.12252 
117 1 0.00000 10.30631 6.18378 
118 1 2.06126 8.24505 6.18378 
119 1 2.06126 10.30631 4.12252 
120 1 0.00000 8.24505 8.24505 
121 1 0.00000 10.30631 10.30631 
122 1 2.06126 8.24505 10.30631 
123 1 2.06126 10.30631 8.24505 
124 1 0.00000 8.24505 12.36757 
125 1 0.00000 10.30631 14.42883 
126 1 2.06126 8.24505 14.42883 
127 1 2.06126 10.30631 12.36757 
128 1 0.00000 8.24505 16.49009 
129 1 0.00000 10.30631 18.55135 
130 1 2.06126 8.24505 18.55135 
131 1 2.06126 10.30631 16.49009 
132 1 0.00000 8.24505 20.61262 
133 1 0.00000 10.30631 22.67388 
134 1 2.06126 8.24505 22.67388 
135 1 2.06126 10.30631 20.61262 
136 1 0.00000 8.24505 24.73514 
137 1 0.00000 10.30631 26.79640 
138 1 2.06126 8.24505 26.79640 
139 1 2.06126 10.30631 24.73514 
140 1 0.00000 8.24505 28.85766 
141 1 0.00000 10.30631 30.91892 
142 1 2.06126 8.24505 30.91892 
143 1 2.06126 10.30631 28.85766 
144 1 0.00000 8.24505 32.98018 
145 1 0.00000 10.30631 35.04145 
146 1 2.06126 8.24505 35.04145 
147 1 2.06126 10.30631 32.98018 
148 1 0.00000 8.24505 37.10271 
149 1 0.00000 10.30631 39.16397 
150 1 2.06126 8.24505 39.16397 
151 1 2.06126 10.30631 37.10271 
152 1 0.00000 8.24505 41.22523 
153 1 0.00000 10.30631 43.28649 
154 1 2.06126 8.24505 43.28649 
155 1 2.06126 10.30631 41.22523 
156 1 0.00000 8.24505 45.34775 
157 1 0.00000 10.30631 47.40901 
158 1 2.06126 8.24505 47.40901 
159 1 2.06126 10.30631 45.34775 
160 1 0.00000 8.24505 49.47028 
161 1 0.00000 10.30631 51.53154 
162 1 2.06126 8.24505 51.53154 
163 1 2.06126 10.30631 49.47028 
164 1 0.00000 8.24505 53.59280 
165 1 0.00000 10.30631 55.65406 
166 1 2.06126 8.24505 55.65406 
167 1 2.06126 10.30631 53.59280 
168 1 0.00000 12.36757 0.00000 
169 1 0.00000 14.42883 2.06126 
170 1 2.06126 12.36757 2.06126 
171 1 2.06126 14.42883 0.00000 
172 1 0.00000 12.36757 4.12252 
173 1 0.00000 14.42883 6.18378 
174 1 2.06126 12.36757 6.18378 
175 1 2.06126 14.42883 4.12252 
176 1 0.00000 12.36757 8.24505 
177 1 0.00000 14.42883 10.30631 
178 1 2.06126 12.36757 10.30631 
179 1 2.06126 14.42883 8.24505 
180 1 0.00000 12.36757 12.36757 
181 1 0.00000 14.42883 14.42883 
182 1 2.06126 12.36757 14.42883 
183 1 2.06126 14.42883 12.36757 
184 1 0.00000 12.36757 16.49009 
185 1 0.00000 14.42883 18.55135 
186 1 2.06126 12.36757 18.55135 
187 1 2.06126 14.42883 16.49009 
188 1 0.00000 12.36757 20.61262 
189 1 0.00000 14.42883 22.67388 
190 1 2.06126 12.36757 22.67388 
191 1 2.06126 14.42883 20.61262 
192 1 0.00000 12.36757 24.73514 
193 1 0.00000 14.42883 26.79640 
194 1 2.06126 12.36757 26.79640 
195 1 2.06126 14.42883 24.73514 
196 1 0.00000 12.36757 28.85766 
197 1 0.00000 14.42883 30.91892 
198 1 2.06126 12.36757 30.91892 
199 1 2.06126 14.42883 28.85766 
200 1 0.00000 12.36757 32.98018 
201 1 0.00000 14.42883 35.04145 
202 1 2.06126 12.36757 35.04145 
203 1 2.06126 14.42883 32.98018 
204 1 0.00000 12.36757 37.10271 
205 1 0.00000 14.42883 39.16397 
206 1 2.06126 12.36757 39.16397 
207 1 2.06126 14.42883 37.10271 
208 1 0.00000 12.36757 41.22523 
209 1 0.00000 14.42883 43.28649 
210 1 2.06126 12.36757 43.28649 
211 1 2.06126 14.42883 41.22523 
212 1 0.00000 12.36757 45.34775 
213 1 0.00000 14.42883 47.40901 
214 1 2.06126 12.36757 47.40901 
215 1 2.06126 14.42883 45.34775 
216 1 0.00000 12.36757 49.47028 
217 1 0.00000 14.42883 51.53154 
218 1 2.06126 12.36757 51.53154 
219 1 2.06126 14.42883 49.47028 
220 1 0.00000 12.36757 53.59280 
221 1 0.00000 14.42883 55.65406 
222 1 2.06126 12.36757 55.65406 
223 1 2.06126 14.42883 53.59280 
224 1 0.00000 16.49009 0.00000 
225 1 0.00000 18.55135 2.06126 
226 1 2.06126 16.49009 2.06126 
227 1 2.06126 18.55135 0.00000 
228 1 0.00000 16.49009 4.12252 
229 1 0.00000 18.55135 6.18378 
230 1 2.06126 16.49009 6.18378 
231 1 2.06126 18.55135 4.12252 
232 1 0.00000 16.49009 8.24505 
233 1 0.00000 18.55135 10.30631 
234 1 2.06126 16.49009 10.30631 
235 1 2.06126 18.55135 8.24505 
236 1 0.00000 16.49009 12.36757 
237 1 0.00000 18.55135 14.42883 
238 1 2.06126 16.49009 14.42883 
239 1 2.06126 18.55135 12.36757 
240 1 0.00000 16.49009 16.49009 
241 1 0.00000 18.55135 18.55135 
242 1 2.06126 16.49009 18.55135 
243 1 2.06126 18.55135 16.49009 
244 1 0.00000 16.49009 20.61262 
245 1 0.00000 18.55135 22.67388 
246 1 2.06126 16.49009 22.67388 
247 1 2.06126 18.55135 20.61262 
248 1 0.00000 16.49009 24.73514 
249 1 0.00000 18.55135 26.79640 
250 1 2.06126 16.49009 26.79640 
251 1 2.06126 18.55135 24.73514 
252 1 0.00000 16.49009 28.85766 
253 1 0.00000 18.55135 30.91892 
254 1 2.06126 16.49009 30.91892 
255 1 2.06126 18.55135 28.85766 
256 1 0.00000 16.49009 32.98018 
257 1 0.00000 18.55135 35.04145 
258 1 2.06126 16.49009 35.04145 
259 1 2.06126 18.55135 32.98018 
260 1 0.00000 16.49009 37.10271 
261 1 0.00000 18.55135 39.16397 
262 1 2.06126 16.49009 39.16397 
263 1 2.06126 18.55135 37.10271 
264 1 0.00000 16.49009 41.22523 
265 1 0.00000 18.55135 43.28649 
266 1 2.06126 16.49009 43.28649 
267 1 2.06126 18.55135 41.22523 
268 1 0.00000 16.49009 45.34775 
269 1 0.00000 18.55135 47.40901 
270 1 2.06126 16.49009 47.40901 
271 1 2.06126 18.55135 45.34775 
272 1 0.00000 16.49009 49.47028 
273 1 0.00000 18.55135 51.53154 
274 1 2.06126 16.49009 51.53154 
275 1 2.06126 18.55135 49.47028 
276 1 0.00000 16.49009 53.59280 
277 1 0.00000 18.55135 55.65406 
278 1 2.06126 16.49009 55.65406 
279 1 2.06126 18.55135 53.59280 
280 1 0.00000 20.61262 0.00000 
281 1 0.00000 22.67388 2.06126 
282 1 2.06126 20.61262 2.06126 
283 1 2.06126 22.67388 0.00000 
284 1 0.00000 20.61262 4.12252 
285 1 0.00000 22.67388 6.18378 
286 1 2.06126 20.61262 6.18378 
287 1 2.06126 22.67388 4.12252 
288 1 0.00000 20.61262 8.24505 
289 1 0.00000 22.67388 10.30631 
290 1 2.06126 20.61262 10.30631 
291 1 2.06126 22.67388 8.24505 
292 1 0.00000 20.61262 12.36757 
293 1 0.00000 22.67388 14.42883 
294 1 2.06126 20.61262 14.42883 
295 1 2.06126 22.67388 12.36757 
296 1 0.00000 20.61262 16.49009 
297 1 0.00000 22.67388 18.55135 
298 1 2.06126 20.61262 18.55135 
299 1 2.06126 22.67388 16.49009 
300 1 0.00000 20.61262 20.61262 
301 1 0.00000 22.67388 22.67388 
302 1 2.06126 20.61262 22.67388 
303 1 2.06126 22.67388 20.61262 
304 1 0.00000 20.61262 24.73514 
305 1 0.00000 22.67388 26.79640 
306 1 2.06126 20.61262 26.79640 
307 1 2.06126 22.67388 24.73514 
308 1 0.00000 20.61262 28.85766 
309 1 0.00000 22.67388 30.91892 
310 1 2.06126 20.61262 30.91892 
311 1 2.06126 22.67388 28.85766 
312 1 0.00000 20.61262 32.98018 
313 1 0.00000 22.67388 35.04145 
314 1 2.06126 20.61262 35.04145 
315 1 2.06126 22.67388 32.98018 
316 1 0.00000 20.61262 37.10271 
317 1 0.00000 22.67388 39.16397 
318 1 2.06126 20.61262 39.16397 
319 1 2.06126 22.67388 37.10271 
320 1 0.00000 20.61262 41.22523 
321 1 0.00000 22.67388 43.28649 
322 1 2.06126 20.61262 43.28649 
323 1 2.06126 22.67388 41.22523 
324 1 0.00000 20.61262 45.34775 
325 1 0.00000 22.67388 47.40901 
326 1 2.06126 20.61262 47.40901 
327 1 2.06126 22.67388 45.34775 
328 1 0.00000 20.61262 49.47028 
329 1 0.00000 22.67388 51.53154 
330 1 2.06126 20.61262 51.53154 
331 1 2.06126 22.67388 49.47028 
332 1 0.00000 20.61262 53.59280 
333 1 0.00000 22.67388 55.65406 
334 1 2.06126 20.61262 55.65406 
335 1 2.06126 22.67388 53.59280 
336 1 0.00000 24.73514 0.00000 
337 1 0.00000 26.79640 2.06126 
338 1 2.06126 24.73514 2.06126 
339 1 2.06126 26.79640 0.00000 
340 1 0.00000 24.73514 4.12252 
341 1 0.00000 26.79640 6.18378 
342 1 2.06126 24.73514 6.18378 
343 1 2.06126 26.79640 4.12252 
344 1 0.00000 24.73514 8.24505 
345 1 0.00000 26.79640 10.30631 
346 1 2.06126 24.73514 10.30631 
347 1 2.06126 26.79640 8.24505 
348 1 0.00000 24.73514 12.36757 
349 1 0.00000 26.79640 14.42883 
350 1 2.06126 24.73514 14.42883 
351 1 2.06126 26.79640 12.36757 
352 1 0.00000 24.73514 16.49009 
353 1 0.00000 26.79640 18.55135 
354 1 2.06126 24.73514 18.55135 
355 1 2.06126 26.79640 16.49009 
356 1 0.00000 24.73514 20.61262 
357 1 0.00000 26.79640 22.67388 
358 1 2.06126 24.73514 22.67388 
359 1 2.06126 26.79640 20.61262 
360 1 0.00000 24.73514 24.73514 
361 1 0.00000 26.79640 26.79640 
362 1 2.06126 24.73514 26.79640 
363 1 2.06126 26.79640 24.73514 
364 1 0.00000 24.73514 28.85766 
365 1 0.00000 26.79640 30.91892 
366 1 2.06126 24.73514 30.91892 
367 1 2.06126 26.79640 28.85766 
368 1 0.00000 24.73514 32.98018 
369 1 0.00000 26.79640 35.04145 
370 1 2.06126 24.73514 35.04145 
371 1 2.06126 26.79640 32.98018 
372 1 0.00000 24.73514 37.10271 
373 1 0.00000 26.79640 39.16397 
374 1 2.06126 24.73514 39.16397 
375 1 2.06126 26.79640 37.10271 
376 1 0.00000 24.73514 41.22523 
377 1 0.00000 26.79640 43.28649 
378 1 2.06126 24.73514 43.28649 
379 1 2.06126 26.79640 41.22523 
380 1 0.00000 24.73514 45.34775 
381 1 0.00000 26.79640 47.40901 
382 1 2.06126 24.73514 47.40901 
383 1 2.06126 26.79640 45.34775 
384 1 0.00000 24.73514 49.47028 
385 1 0.00000 26.79640 51.53154 
386 1 2.06126 24.73514 51.53154 
387 1 2.06126 26.79640 49.47028 
388 1 0.00000 24.73514 53.59280 
389 1 0.00000 26.79640 55.65406 
390 1 2.06126 24.73514 55.65406 
391 1 2.06126 26.79640 53.59280 
392 1 0.00000 28.85766 0.00000 
393 1 0.00000 30.91892 2.06126 
394 1 2.06126 28.85766 2.06126 
395 1 2.06126 30.91892 0.00000 
396 1 0.00000 28.85766 4.12252 
397 1 0.00000 30.91892 6.18378 
398 1 2.06126 28.85766 6.18378 
399 1 2.06126 30.91892 4.12252 
400 1 0.00000 28.85766 8.24505 
401 1 0.00000 30.91892 10.30631 
402 1 2.06126 28.85766 10.30631 
403 1 2.06126 30.91892 8.24505 
404 1 0.00000 28.85766 12.36757 
405 1 0.00000 30.91892 14.42883 
406 1 2.06126 28.85766 14.42883 
407 1 2.06126 30.91892 12.36757 
408 1 0.00000 28.85766 16.49009 
409 1 0.00000 30.91892 18.55135 
410 1 2.06126 28.85766 18.55135 
411 1 2.06126 30.91892 16.49009 
412 1 0.00000 28.85766 20.61262 
413 1 0.00000 30.91892 22.67388 
414 1 2.06126 28.85766 22.67388 
415 1 2.06126 30.91892 20.61262 
416 1 0.00000 28.85766 24.73514 
417 1 0.00000 30.91892 26.79640 
418 1 2.06126 28.85766 26.79640 
419 1 2.06126 30.91892 24.73514 
420 1 0.00000 28.85766 28.85766 
421 1 0.00000 30.91892 30.91892 
422 1 2.06126 28.85766 30.91892 
423 1 2.06126 30.91892 28.85766 
424 1 0.00000 28.85766 32.98018 
425 1 0.00000 30.91892 35.04145 
426 1 2.06126 28.85766 35.04145 
427 1 2.06126 30.91892 32.98018 
428 1 0.00000 28.85766 37.10271 
429 1 0.00000 30.91892 39.16397 
430 1 2.06126 28.85766 39.16397 
431 1 2.06126 30.91892 37.10271 
432 1 0.00000 28.85766 41.22523 
433 1 0.00000 30.91892 43.28649 
434 1 2.06126 28.85766 43.28649 
435 1 2.06126 30.91892 41.22523 
436 1 0.00000 28.85766 45.34775 
437 1 0.00000 30.91892 47.40901 
438 1 2.06126 28.85766 47.40901 
439 1 2.06126 30.91892 45.34775 
440 1 0.00000 28.85766 49.47028 
441 1 0.00000 30.91892 51.53154 
442 1 2.06126 28.85766 51.53154 
443 1 2.06126 30.91892 49.47028 
444 1 0.00000 28.85766 53.59280 
445 1 0.00000 30.91892 55.65406 
446 1 2.06126 28.85766 55.65406 
447 1 2.06126 30.91892 53.59280 
448 1 0.00000 32.98018 0.00000 
449 1 0.00000 35.04145 2.06126 
450 1 2.06126 32.98018 2.06126 
451 1 2.06126 35.04145 0.00000 
452 1 0.00000 32.98018 4.12252 
453 1 0.00000 35.04145 6.18378 
454 1 2.06126 32.98018 6.18378 
455 1 2.06126 35.04145 4.12252 
456 1 0.00000 32.98018 8.24505 
457 1 0.00000 35.04145 10.30631 
458 1 2.06126 32.98018 10.30631 
459 1 2.06126 35.04145 8.24505 
460 1 0.00000 32.98018 12.36757 
461 1 0.00000 35.04145 14.42883 
462 1 2.06126 32.98018 14.42883 
463 1 2.06126 35.04145 12.36757 
464 1 0.00000 32.98018 16.49009 
465 1 0.00000 35.04145 18.55135 
466 1 2.06126 32.98018 18.55135 
467 1 2.06126 35.04145 16.49009 
468 1 0.00000 32.98018 20.61262 
469 1 0.00000 35.04145 22.67388 
470 1 2.06126 32.98018 22.67388 
471 1 2.06126 35.04145 20.61262 
472 1 0.00000 32.98018 24.73514 
473 1 0.00000 35.04145 26.79640 
474 1 2.06126 32.98018 26.79640 
475 1 2.06126 35.04145 24.73514 
476 1 0.00000 32.98018 28.85766 
477 1 0.00000 35.04145 30.91892 
478 1 2.06126 32.98018 30.91892 
479 1 2.06126 35.04145 28.85766 
480 1 0.00000 32.98018 32.98018 
481 1 0.00000 35.04145 35.04145 
482 1 2.06126 32.98018 35.04145 
483 1 2.06126 35.04145 32.98018 
484 1 0.00000 32.98018 37.10271 
485 1 0.00000 35.04145 39.16397 
486 1 2.06126 32.98018 39.16397 
487 1 2.06126 35.04145 37.10271 
488 1 0.00000 32.98018 41.22523 
489 1 0.00000 35.04145 43.28649 
490 1 2.06126 32.98018 43.28649 
491 1 2.06126 35.04145 41.22523 
492 1 0.00000 32.98018 45.34775 
493 1 0.00000 35.04145 47.40901 
494 1 2.06126 32.98018 47.40901 
495 1 2.06126 35.04145 45.34775 
496 1 0.00000 32.98018 49.47028 
497 1 0.00000 35.04145 51.53154 
498 1 2.06126 32.98018 51.53154 
499 1 2.06126 35.04145 49.47028 
500 1 0.00000 32.98018 53.59280 
501 1 0.00000 35.04145 55.65406 
502 1 2.06126 32.98018 55.65406 
503 1 2.06126 35.04145 53.59280 
504 1 0.00000 37.10271 0.00000 
505 1 0.00000 39.16397 2.06126 
506 1 2.06126 37.10271 2.06126 
507 1 2.06126 39.16397 0.00000 
508 1 0.00000 37.10271 4.12252 
509 1 0.00000 39.16397 6.18378 
510 1 2.06126 37.10271 6.18378 
511 1 2.06126 39.16397 4.12252 
512 1 0.00000 37.10271 8.24505 
513 1 0.00000 39.16397 10.30631 
514 1 2.06126 37.10271 10.30631 
515 1 2.06126 39.16397 8.24505 
516 1 0.00000 37.10271 12.36757 
517 1 0.00000 39.16397 14.42883 
518 1 2.06126 37.10271 14.42883 
519 1 2.06126 39.16397 12.36757 
520 1 0.00000 37.10271 16.49009 
521 1 0.00000 39.16397 18.55135 
522 1 2.06126 37.10271 18.55135 
523 1 2.06126 39.16397 16.49009 
524 1 0.00000 37.10271 20.61262 
525 1 0.00000 39.16397 22.67388 
526 1 2.06126 37.10271 22.67388 
527 1 2.06126 39.16397 20.61262 
528 1 0.00000 37.10271 24.73514 
529 1 0.00000 39.16397 26.79640 
530 1 2.06126 37.10271 26.79640 
531 1 2.06126 39.16397 24.73514 
532 1 0.00000 37.10271 28.85766 
533 1 0.00000 39.16397 30.91892 
534 1 2.06126 37.10271 30.91892 
535 1 2.06126 39.16397 28.85766 
536 1 0.00000 37.10271 32.98018 
537 1 0.00000 39.16397 35.04145 
538 1 2.06126 37.10271 35.04145 
539 1 2.06126 39.16397 32.98018 
540 1 0.00000 37.10271 37.10271 
541 1 0.00000 39.16397 39.16397 
542 1 2.06126 37.10271 39.16397 
543 1 2.06126 39.16397 37.10271 
544 1 0.00000 37.10271 41.22523 
545 1 0.00000 39.16397 43.28649 
546 1 2.06126 37.10271 43.28649 
547 1 2.06126 39.16397 41.22523 
548 1 0.00000 37.10271 45.34775 
549 1 0.00000 39.16397 47.40901 
550 1 2.06126 37.10271 47.40901 
551 1 2.06126 39.16397 45.34775 
552 1 0.00000 37.10271 49.47028 
553 1 0.00000 39.16397 51.53154 
554 1 2.06126 37.10271 51.53154 
555 1 2.06126 39.16397 49.47028 
556 1 0.00000 37.10271 53.59280 
557 1 0.00000 39.16397 55.65406 
558 1 2.06126 37.10271 55.65406 
559 1 2.06126 39.16397 53.59280 
560 1 0.00000 41.22523 0.00000 
561 1 0.00000 43.28649 2.06126 
562 1 2.06126 41.22523 2.06126 
563 1 2.06126 43.28649 0.00000 
564 1 0.00000 41.22523 4.12252 
565 1 0.00000 43.28649 6.18378 
566 1 2.06126 41.22523 6.18378 
567 1 2.06126 43.28649 4.12252 
568 1 0.00000 41.22523 8.24505 
569 1 0.00000 43.28649 10.30631 
570 1 2.06126 41.22523 10.30631 
571 1 2.06126 43.28649 8.24505 
572 1 0.00000 41.22523 12.36757 
573 1 0.00000 43.28649 14.42883 
574 1 2.06126 41.22523 14.42883 
575 1 2.06126 43.28649 12.36757 
576 1 0.00000 41.22523 16.49009 
577 1 0.00000 43.28649 18.55135 
578 1 2.06126 41.22523 18.55135 
579 1 2.06126 43.28649 16.49009 
580 1 0.00000 41.22523 20.61262 
581 1 0.00000 43.28649 22.67388 
582 1 2.06126 41.22523 22.67388 
583 1 2.06126 43.28649 20.61262 
584 1 0.00000 41.22523 24.73514 
585 1 0.00000 43.28649 26.79640 
586 1 2.06126 41.22523 26.79640 
587 1 2.06126 43.28649 24.73514 
588 1 0.00000 41.22523 28.85766 
589 1 0.00000 43.28649 30.91892 
590 1 2.06126 41.22523 30.91892 
591 1 2.06126 43.28649 28.85766 
592 1 0.00000 41.22523 32.98018 
593 1 0.00000 43.28649 35.04145 
594 1 2.06126 41.22523 35.04145 
595 1 2.06126 43.28649 32.98018 
596 1 0.00000 41.22523 37.10271 
597 1 0.00000 43.28649 39.16397 
598 1 2.06126 41.22523 39.16397 
599 1 2.06126 43.28649 37.10271 
600 1 0.00000 41.22523 41.22523 
601 1 0.00000 43.28649 43.28649 
602 1 2.06126 41.22523 43.28649 
603 1 2.06126 43.28649 41.22523 
604 1 0.00000 41.22523 45.34775 
605 1 0.00000 43.28649 47.40901 
606 1 2.06126 41.22523 47.40901 
607 1 2.06126 43.28649 45.34775 
608 1 0.00000 41.22523 49.47028 
609 1 0.00000 43.28649 51.53154 
610 1 2.06126 41.22523 51.53154 
611 1 2.06126 43.28649 49.47028 
612 1 0.00000 41.22523 53.59280 
613 1 0.00000 43.28649 55.65406 
614 1 2.06126 41.22523 55.65406 
615 1 2.06126 43.28649 53.59280 
616 1 0.00000 45.34775 0.00000 
617 1 0.00000 47.40901 2.06126 
618 1 2.06126 45.34775 2.06126 
619 1 2.06126 47.40901 0.00000 
620 1 0.00000 45.34775 4.12252 
621 1 0.00000 47.40901 6.18378 
622 1 2.06126 45.34775 6.18378 
623 1 2.06126 47.40901 4.12252 
624 1 0.00000 45.34775 8.24505 
625 1 0.00000 47.40901 10.30631 
626 1 2.06126 45.34775 10.30631 
627 1 2.06126 47.40901 8.24505 
628 1 0.00000 45.34775 12.36757 
629 1 0.00000 47.40901 14.42883 
630 1 2.06126 45.34775 14.42883 
631 1 2.06126 47.40901 12.36757 
632 1 0.00000 45.34775 16.49009 
633 1 0.00000 47.40901 18.55135 
634 1 2.06126 45.34775 18.55135 
635 1 2.06126 47.40901 16.49009 
636 1 0.00000 45.34775 20.61262 
637 1 0.00000 47.40901 22.67388 
638 1 2.06126 45.34775 22.67388 
639 1 2.06126 47.40901 20.61262 
640 1 0.00000 45.34775 24.73514 
641 1 0.00000 47.40901 26.79640 
642 1 2.06126 45.34775 26.79640 
643 1 2.06126 47.40901 24.73514 
644 1 0.00000 45.34775 28.85766 
645 1 0.00000 47.40901 30.91892 
646 1 2.06126 45.34775 30.91892 
647 1 2.06126 47.40901 28.85766 
648 1 0.00000 45.34775 32.98018 
649 1 0.00000 47.40901 35.04145 
650 1 2.06126 45.34775 35.04145 
651 1 2.06126 47.40901 32.98018 
652 1 0.00000 45.34775 37.10271 
653 1 0.00000 47.40901 39.16397 
654 1 2.06126 45.34775 39.16397 
655 1 2.06126 47.40901 37.10271 
656 1 0.00000 45.34775 41.22523 
657 1 0.00000 47.40901 43.28649 
658 1 2.06126 45.34775 43.28649 
659 1 2.06126 47.40901 41.22523 
660 1 0.00000 45.34775 45.34775 
661 1 0.00000 47.40901 47.40901 
662 1 2.06126 45.34775 47.40901 
663 1 2.06126 47.40901 45.34775 
664 1 0.00000 45.34775 49.47028 
665 1 0.00000 47.40901 51.53154 
666 1 2.06126 45.34775 51.53154 
667 1 2.06126 47.40901 49.47028 
668 1 0.00000 45.34775 53.59280 
669 1 0.00000 47.40901 55.65406 
670 1 2.06126 45.34775 55.65406 
671 1 2.06126 47.40901 53.59280 
672 1 0.00000 49.47028 0.00000 
673 1 0.00000 51.53154 2.06126 
674 1 2.06126 49.47028 2.06126 
675 1 2.06126 51.53154 0.00000 
676 1 0.00000 49.47028 4.12252 
677 1 0.00000 51.53154 6.18378 
678 1 2.06126 49.47028 6.18378 
679 1 2.06126 51.53154 4.12252 
680 1 0.00000 49.47028 8.24505 
681 1 0.00000 51.53154 10.30631 
682 1 2.06126 49.47028 10.30631 
683 1 2.06126 51.53154 8.24505 
684 1 0.00000 49.47028 12.36757 
685 1 0.00000 51.53154 14.42883 
686 1 2.06126 49.47028 14.42883 
687 1 2.06126 51.53154 12.36757 
688 1 0.00000 49.47028 16.49009 
689 1 0.00000 51.53154 18.55135 
690 1 2.06126 49.47028 18.55135 
691 1 2.06126 51.53154 16.49009 
692 1 0.00000 49.47028 20.61262 
693 1 0.00000 51.53154 22.67388 
694 1 2.06126 49.47028 22.67388 
695 1 2.06126 51.53154 20.61262 
696 1 0.00000 49.47028 24.73514 
697 1 0.00000 51.53154 26.79640 
698 1 2.06126 49.47028 26.79640 
699 1 2.06126 51.53154 24.73514 
700 1 0.00000 49.47028 28.85766 
701 1 0.00000 51.53154 30.91892 
702 1 2.06126 49.47028 30.91892 
703 1 2.06126 51.53154 28.85766 
704 1 0.00000 49.47028 32.98018 
705 1 0.00000 51.53154 35.04145 
706 1 2.06126 49.47028 35.04145 
707 1 2.06126 51.53154 32.98018 
708 1 0.00000 49.47028 37.10271 
709 1 0.00000 51.53154 39.16397 
710 1 2.06126 49.47028 39.16397 
711 1 2.06126 51.53154 37.10271 
712 1 0.00000 49.47028 41.22523 
713 1 0.00000 51.53154 43.28649 
714 1 2.06126 49.47028 43.28649 
715 1 2.06126 51.53154 41.22523 
716 1 0.00000 49.47028 45.34775 
717 1 0.00000 51.53154 47.40901 
718 1 2.06126 49.47028 47.40901 
719 1 2.06126 51.53154 45.34775 
720 1 0.00000 49.47028 49.47028 
721 1 0.00000 51.53154 51.53154 
722 1 2.06126 49.47028 51.53154 
723 1 2.06126 51.53154 49.47028 
724 1 0.00000 49.47028 53.59280 
725 1 0.00000 51.53154 55.65406 
726 1 2.06126 49.47028 55.65406 
727 1 2.06126 51.53154 53.59280 
728 1 0.00000 53.59280 0.00000 
729 1 0.00000 55.65406 2.06126 
730 1 2.06126 53.59280 2.06126 
731 1 2.06126 55.65406 0.00000 
732 1 0.00000 53.59280 4.12252 
733 1 0.00000 55.65406 6.18378 
734 1 2.06126 53.59280 6.18378 
735 1 2.06126 55.65406 4.12252 
736 1 0.00000 53.59280 8.24505 
737 1 0.00000 55.65406 10.30631 
738 1 2.06126 53.59280 10.30631 
739 1 2.06126 55.65406 8.24505 
740 1 0.00000 53.59280 12.36757 
741 1 0.00000 55.65406 14.42883 
742 1 2.06126 53.59280 14.42883 
743 1 2.06126 55.65406 12.36757 
744 1 0.00000 53.59280 16.49009 
745 1 0.00000 55.65406 18.55135 
746 1 2.06126 53.59280 18.55135 
747 1 2.06126 55.65406 16.49009 
748 1 0.00000 53.59280 20.61262 
749 1 0.00000 55.65406 22.67388 
750 1 2.06126 53.59280 22.67388 
751 1 2.06126 55.65406 20.61262 
752 1 0.00000 53.59280 24.73514 
753 1 0.00000 55.65406 26.79640 
754 1 2.06126 53.59280 26.79640 
755 1 2.06126 55.65406 24.73514 
756 1 0.00000 53.59280 28.85766 
757 1 0.00000 55.65406 30.91892 
758 1 2.06126 53.59280 30.91892 
759 1 2.06126 55.65406 28.85766 
760 1 0.00000 53.59280 32.98018 
761 1 0.00000 55.65406 35.04145 
762 1 2.06126 53.59280 35.04145 
763 1 2.06126 55.65406 32.98018 
764 1 0.00000 53.59280 37.10271 
765 1 0.00000 55.65406 39.16397 
766 1 2.06126 53.59280 39.16397 
767 1 2.06126 55.65406 37.10271 
768 1 0.00000 53.59280 41.22523 
769 1 0.00000 55.65406 43.28649 
770 1 2.06126 53.59280 43.28649 
771 1 2.06126 55.65406 41.22523 
772 1 0.00000 53.59280 45.34775 
773 1 0.00000 55.65406 47.40901 
774 1 2.06126 53.59280 47.40901 
775 1 2.06126 55.65406 45.34775 
776 1 0.00000 53.59280 49.47028 
777 1 0.00000 55.65406 51.53154 
778 1 2.06126 53.59280 51.53154 
779 1 2.06126 55.65406 49.47028 
780 1 0.00000 53.59280 53.59280 
781 1 0.00000 55.65406 55.65406 
782 1 2.06126 53.59280 55.65406 
783 1 2.06126 55.65406 53.59280 
784 1 4.12252 0.00000 0.00000 
785 1 4.12252 2.06126 2.06126 
786 1 6.18378 0.00000 2.06126 
787 1 6.18378 2.06126 0.00000 
788 1 4.12252 0.00000 4.12252 
789 1 4.12252 2.06126 6.18378 
790 1 6.18378 0.00000 6.18378 
791 1 6.18378 2.06126 4.12252 
792 1 4.12252 0.00000 8.24505 
793 1 4.12252 2.06126 10.30631 
794 1 6.18378 0.00000 10.30631 
795 1 6.18378 2.06126 8.24505 
796 1 4.12252 0.00000 12.36757 
797 1 4.12252 2.06126 14.42883 
798 1 6.18378 0.00000 14.42883 
799 1 6.18378 2.06126 12.36757 
800 1 4.12252 0.00000 16.49009 
801 1 4.12252 2.06126 18.55135 
802 1 6.18378 0.00000 18.55135 
803 1 6.18378 2.06126 16.49009 
804 1 4.12252 0.00000 20.61262 
805 1 4.12252 2.06126 22.67388 
806 1 6.18378 0.00000 22.67388 
807 1 6.18378 2.06126 20.61262 
808 1 4.12252 0.00000 24.73514 
809 1 4.12252 2.06126 26.79640 
810 1 6.18378 0.00000 26.79640 
811 1 6.18378 2.06126 24.73514 
812 1 4.12252 0.00000 28.85766 
813 1 4.12252 2.06126 30.91892 
814 1 6.18378 0.00000 30.91892 
815 1 6.18378 2.06126 28.85766 
816 1 4.12252 0.00000 32.98018 
817 1 4.12252 2.06126 35.04145 
818 1 6.18378 0.00000 35.04145 
819 1 6.18378 2.06126 32.98018 
820 1 4.12252 0.00000 37.10271 
821 1 4.12252 2.06126 39.16397 
822 1 6.18378 0.00000 39.16397 
823 1 6.18378 2.06126 37.10271 
824 1 4.12252 0.00000 41.22523 
825 1 4.12252 2.06126 43.28649 
826 1 6.18378 0.00000 43.28649 
827 1 6.18378 2.06126 41.22523 
828 1 4.12252 0.00000 45.34775 
829 1 4.12252 2.06126 47.40901 
830 1 6.18378 0.00000 47.40901 
831 1 6.18378 2.06126 45.34775 
832 1 4.12252 0.00000 49.47028 
833 1 4.12252 2.06126 51.53154 
834 1 6.18378 0.00000 51.53154 
835 1 6.18378 2.06126 49.47028 
836 1 4.12252 0.00000 53.59280 
837 1 4.12252 2.06126 55.65406 
838 1 6.18378 0.00000 55.65406 
839 1 6.18378 2.06126 53.59280 
840 1 4.12252 4.12252 0.00000 
841 1 4.12252 6.18378 2.06126 
842 1 6.18378 4.12252 2.06126 
843 1 6.18378 6.18378 0.00000 
844 1 4.12252 4.12252 4.12252 
845 1 4.12252 6.18378 6.18378 
846 1 6.18378 4.12252 6.18378 
847 1 6.18378 6.18378 4.12252 
848 1 4.12252 4.12252 8.24505 
849 1 4.12252 6.18378 10.30631 
850 1 6.18378 4.12252 10.30631 
851 1 6.18378 6.18378 8.24505 
852 1 4.12252 4.12252 12.36757 
853 1 4.12252 6.18378 14.42883 
854 1 6.18378 4.12252 14.42883 
855 1 6.18378 6.18378 12.36757 
856 1 4.12252 4.12252 16.49009 
857 1 4.12252 6.18378 18.55135 
858 1 6.18378 4.12252 18.55135 
859 1 6.18378 6.18378 16.49009 
860 1 4.12252 4.12252 20.61262 
861 1 4.12252 6.18378 22.67388 
862 1 6.18378 4.12252 22.67388 
863 1 6.18378 6.18378 20.61262 
864 1 4.12252 4.12252 24.73514 
865 1 4.12252 6.18378 26.79640 
866 1 6.18378 4.12252 26.79640 
867 1 6.18378 6.18378 24.73514 
868 1 4.12252 4.12252 28.85766 
869 1 4.12252 6.18378 30.91892 
870 1 6.18378 4.12252 30.91892 
871 1 6.18378 6.18378 28.85766 
872 1 4.12252 4.12252 32.98018 
873 1 4.12252 6.18378 35.04145 
874 1 6.18378 4.12252 35.04145 
875 1 6.18378 6.18378 32.98018 
876 1 4.12252 4.12252 37.10271 
877 1 4.12252 6.18378 39.16397 
878 1 6.18378 4.12252 39.16397 
879 1 6.18378 6.18378 37.10271 
880 1 4.12252 4.12252 41.22523 
881 1 4.12252 6.18378 43.28649 
882 1 6.18378 4.12252 43.28649 
883 1 6.18378 6.18378 41.22523 
884 1 4.12252 4.12252 45.34775 
885 1 4.12252 6.18378 47.40901 
886 1 6.18378 4.12252 47.40901 
887 1 6.18378 6.18378 45.34775 
888 1 4.12252 4.12252 49.47028 
889 1 4.12252 6.18378 51.53154 
890 1 6.18378 4.12252 51.53154 
891 1 6.18378 6.18378 49.47028 
892 1 4.12252 4.12252 53.59280 
893 1 4.12252 6.18378 55.65406 
894 1 6.18378 4.12252 55.65406 
895 1 6.18378 6.18378 53.59280 
896 1 4.12252 8.24505 0.00000 
897 1 4.12252 10.30631 2.06126 
898 1 6.18378 8.24505 2.06126 
899 1 6.18378 10.30631 0.00000 
900 1 4.12252 8.24505 4.12252 
901 1 4.12252 10.30631 6.18378 
902 1 6.18378 8.24505 6.18378 
903 1 6.18378 10.30631 4.12252 
904 1 4.12252 8.24505 8.24505 
905 1 4.12252 10.30631 10.30631 
906 1 6.18378 8.24505 10.30631 
907 1 6.18378 10.30631 8.24505 
908 1 4.12252 8.24505 12.36757 
909 1 4.12252 10.30631 14.42883 
910 1 6.18378 8.24505 14.42883 
911 1 6.18378 10.30631 12.36757 
912 1 4.12252 8.24505 16.49009 
913 1 4.12252 10.30631 18.55135 
914 1 6.18378 8.24505 18.55135 
915 1 6.18378 10.30631 16.49009 
916 1 4.12252 8.24505 20.61262 
917 1 4.12252 10.30631 22.67388 
918 1 6.18378 8.24505 22.67388 
919 1 6.18378 10.30631 20.61262 