LAMMPS (22 Jul 2025 - Update 1)
Reading data file ...
  orthogonal box = (0 0 0) to (57.715322 57.715322 57.715322)
  1 by 1 by 1 MPI processor grid
  reading atoms ...
  10975 atoms
  read_data CPU = 0.033 seconds
WARNING: No fixes with time integration, atoms won't move
For more information see https://docs.lammps.org/err0028 (../verlet.cpp:60)
Generated 0 of 0 mixed pair_coeff terms from geometric mixing rule
Neighbor list info ...
  update: every = 1 steps, delay = 0 steps, check = yes
  max neighbors/atom: 2000, page size: 100000
  master list distance cutoff = 6.5
  ghost atom cutoff = 6.5
  binsize = 3.25, bins = 18 18 18
  1 neighbor lists, perpetual/occasional/extra = 1 0 0
  (1) pair lj/cut, perpetual
      attributes: half, newton on
      pair build: half/bin/atomonly/newton
      stencil: half/bin/3d
      bin: standard
Setting up Verlet run ...
  Unit style    : metal
  Current step  : 0
  Time step     : 0.001
Per MPI rank memory allocation (min/avg/max) = 7.009 | 7.009 | 7.009 Mbytes
   Step         PotEng           Lx             Ly             Lz           Press           Pxx            Pyy            Pzz      
         0  -28912.151      57.715322      57.715322      57.715322     -0.00051436521 -0.00056072006 -0.00042165541 -0.00056072015
Loop time of 1.948e-06 on 1 procs for 0 steps with 10975 atoms

154.0% CPU use with 1 MPI tasks x no OpenMP threads

MPI task timing breakdown:
Section |  min time  |  avg time  |  max time  |%varavg| %total
---------------------------------------------------------------
Pair    | 0          | 0          | 0          |   0.0 |  0.00
Neigh   | 0          | 0          | 0          |   0.0 |  0.00
Comm    | 0          | 0          | 0          |   0.0 |  0.00
Output  | 0          | 0          | 0          |   0.0 |  0.00
Modify  | 0          | 0          | 0          |   0.0 |  0.00
Other   |            | 1.948e-06  |            |       |100.00

Nlocal:          10975 ave       10975 max       10975 min
Histogram: 1 0 0 0 0 0 0 0 0 0
Nghost:          10454 ave       10454 max       10454 min
Histogram: 1 0 0 0 0 0 0 0 0 0
Neighs:         296298 ave      296298 max      296298 min
Histogram: 1 0 0 0 0 0 0 0 0 0

Total # of neighbors = 296298
Ave neighs/atom = 26.99754
Neighbor list builds = 0
Dangerous builds = 0
Total energy (eV) = -28912.1514406406
Number of atoms = 10975
Lattice constant (Angstoms) = 57.7153221929164
Total wall time: 0:00:00
