
     Program PWSCF v.7.4.1 starts on 21Oct2025 at  0:43:23 

     This program is part of the open-source Quantum ESPRESSO suite
     for quantum simulation of materials; please cite
         "P. Giannozzi et al., J. Phys.:Condens. Matter 21 395502 (2009);
         "P. Giannozzi et al., J. Phys.:Condens. Matter 29 465901 (2017);
         "P. Giannozzi et al., J. Chem. Phys. 152 154105 (2020);
          URL http://www.quantum-espresso.org", 
     in publications or presentations arising from this work. More details at
     http://www.quantum-espresso.org/quote

     Parallel version (MPI), running on     2 processors

     MPI processes distributed on     1 nodes
     206 MiB available memory on the printing compute node when the environment starts

     Waiting for input...
     Reading input from standard input
Warning: card &CELL ignored
Warning: card / ignored

     Current dimensions of program PWSCF are:
     Max number of different atomic species (ntypx) = 10
     Max number of k-points (npk) =  40000
     Max angular momentum in pseudopotentials (lmaxx) =  4
     file Fe.pbe-nd-rrkjus.UPF: wavefunction(s)  4S renormalized
     Message from routine setup:
     using ibrav=0 with symmetry is DISCOURAGED, use correct ibrav instead

     R & G space division:  proc/nbgrp/npool/nimage =       2
     Subspace diagonalization in iterative solution of the eigenvalue problem:
     a serial algorithm will be used


     Parallelization info
     --------------------
     sticks:   dense  smooth     PW     G-vecs:    dense   smooth      PW
     Min         390     155     64                 6905     1755     478
     Max         391     156     65                 6906     1756     481
     Sum         781     311    129                13811     3511     959

     Using Slab Decomposition



     bravais-lattice index     =            0
     lattice parameter (alat)  =       5.8916  a.u.
     unit-cell volume          =     157.4251 (a.u.)^3
     number of atoms/cell      =            1
     number of atomic types    =            1
     number of electrons       =         8.00
     number of Kohn-Sham states=            8
     kinetic-energy cutoff     =      30.0000  Ry
     charge density cutoff     =     300.0000  Ry
     scf convergence threshold =      1.0E-07
     mixing beta               =       0.5000
     number of iterations used =            8  plain     mixing
     Exchange-correlation=  SLA  PW   PBE  PBE
                           (   1   4   3   4   0   0   0)

     celldm(1)=   5.891583  celldm(2)=   0.000000  celldm(3)=   0.000000
     celldm(4)=   0.000000  celldm(5)=   0.000000  celldm(6)=   0.000000

     crystal axes: (cart. coord. in units of alat)
               a(1) = (  -0.577350   0.577350   0.577350 )  
               a(2) = (   0.577350  -0.577350   0.577350 )  
               a(3) = (   0.577350   0.577350  -0.577350 )  

     reciprocal axes: (cart. coord. in units 2 pi/alat)
               b(1) = (  0.000000  0.866025  0.866025 )  
               b(2) = (  0.866025  0.000000  0.866025 )  
               b(3) = (  0.866025  0.866025  0.000000 )  


     PseudoPot. # 1 for Fe read from file:
     /home/bond/Software/QE/qe-7.4.1/pseudo/Fe.pbe-nd-rrkjus.UPF
     MD5 check sum: 398036227a04b607635f6f5e8dfd8242
     Pseudo is Ultrasoft + core correction, Zval =  8.0
     Generated by new atomic code, or converted to UPF format
     Using radial grid of  957 points,  6 beta functions with: 
                l(1) =   0
                l(2) =   0
                l(3) =   1
                l(4) =   1
                l(5) =   2
                l(6) =   2
     Q(r) pseudized with 0 coefficients 


     atomic species   valence    mass     pseudopotential
     Fe                8.00    55.84500     Fe( 1.00)

     Starting magnetic structure 
     atomic species   magnetization
     Fe              0.700

     48 Sym. Ops., with inversion, found



   Cartesian axes

     site n.     atom                  positions (alat units)
         1        Fe     tau(   1) = (   0.0000000   0.0000000   0.0000000  )

     number of k points=   104  Methfessel-Paxton smearing, width (Ry)=  0.0200

     Number of k-points >= 100: set verbosity='high' to print them.

     Dense  grid:    13811 G-vectors     FFT dimensions: (  36,  36,  36)

     Smooth grid:     3511 G-vectors     FFT dimensions: (  24,  24,  24)

     Estimated max dynamical RAM per process >      35.78 MB

     Estimated total dynamical RAM >      71.56 MB

     Check: negative core charge=   -0.000027
     Generating pointlists ...
     new r_m :   0.4125 (alat units)  2.4303 (a.u.) for type    1

     Initial potential from superposition of free atoms

     starting charge       7.9994, renormalised to       8.0000
     Starting wfcs are    6 randomized atomic wfcs +    2 random wfcs

     total cpu time spent up to now is        1.5 secs

     Self-consistent Calculation

     iteration #  1     ecut=    30.00 Ry     beta= 0.50
     Davidson diagonalization with overlap
     ethr =  1.00E-02,  avg # of iterations =  4.7

     total cpu time spent up to now is        3.9 secs

     total energy              =     -55.47279593 Ry
     estimated scf accuracy    <       0.45826752 Ry

     total magnetization       =     3.98 Bohr mag/cell
     absolute magnetization    =     3.98 Bohr mag/cell

     iteration #  2     ecut=    30.00 Ry     beta= 0.50
     Davidson diagonalization with overlap
     ethr =  5.73E-03,  avg # of iterations =  2.0

     total cpu time spent up to now is        5.5 secs

     total energy              =     -55.61746608 Ry
     estimated scf accuracy    <       0.38652996 Ry

     total magnetization       =     3.03 Bohr mag/cell
     absolute magnetization    =     3.05 Bohr mag/cell

     iteration #  3     ecut=    30.00 Ry     beta= 0.50
     Davidson diagonalization with overlap
     ethr =  4.83E-03,  avg # of iterations =  1.0

     total cpu time spent up to now is        6.9 secs

     total energy              =     -55.67790968 Ry
     estimated scf accuracy    <       0.00520619 Ry

     total magnetization       =     3.39 Bohr mag/cell
     absolute magnetization    =     3.44 Bohr mag/cell

     iteration #  4     ecut=    30.00 Ry     beta= 0.50
     Davidson diagonalization with overlap
     ethr =  6.51E-05,  avg # of iterations =  3.8

     total cpu time spent up to now is        9.0 secs

     total energy              =     -55.68342575 Ry
     estimated scf accuracy    <       0.00175873 Ry

     total magnetization       =     3.24 Bohr mag/cell
     absolute magnetization    =     3.43 Bohr mag/cell

     iteration #  5     ecut=    30.00 Ry     beta= 0.50
     Davidson diagonalization with overlap
     ethr =  2.20E-05,  avg # of iterations =  2.3

     total cpu time spent up to now is       10.5 secs

     total energy              =     -55.68447381 Ry
     estimated scf accuracy    <       0.00044322 Ry

     total magnetization       =     3.12 Bohr mag/cell
     absolute magnetization    =     3.40 Bohr mag/cell

     iteration #  6     ecut=    30.00 Ry     beta= 0.50
     Davidson diagonalization with overlap
     c_bands:  1 eigenvalues not converged
     ethr =  5.54E-06,  avg # of iterations =  3.6

     total cpu time spent up to now is       12.5 secs

     total energy              =     -55.68463894 Ry
     estimated scf accuracy    <       0.00084629 Ry

     total magnetization       =     3.13 Bohr mag/cell
     absolute magnetization    =     3.45 Bohr mag/cell

     iteration #  7     ecut=    30.00 Ry     beta= 0.50
     Davidson diagonalization with overlap
     ethr =  5.54E-06,  avg # of iterations =  1.4

     total cpu time spent up to now is       14.1 secs

     total energy              =     -55.68477245 Ry
     estimated scf accuracy    <       0.00001274 Ry

     total magnetization       =     3.10 Bohr mag/cell
     absolute magnetization    =     3.44 Bohr mag/cell

     iteration #  8     ecut=    30.00 Ry     beta= 0.50
     Davidson diagonalization with overlap
     ethr =  1.59E-07,  avg # of iterations =  3.8

     total cpu time spent up to now is       16.0 secs

     total energy              =     -55.68477495 Ry
     estimated scf accuracy    <       0.00001834 Ry

     total magnetization       =     3.11 Bohr mag/cell
     absolute magnetization    =     3.44 Bohr mag/cell

     iteration #  9     ecut=    30.00 Ry     beta= 0.50
     Davidson diagonalization with overlap
     ethr =  1.59E-07,  avg # of iterations =  1.9

     total cpu time spent up to now is       17.5 secs

     total energy              =     -55.68477920 Ry
     estimated scf accuracy    <       0.00000051 Ry

     total magnetization       =     3.11 Bohr mag/cell
     absolute magnetization    =     3.44 Bohr mag/cell

     iteration # 10     ecut=    30.00 Ry     beta= 0.50
     Davidson diagonalization with overlap
     ethr =  6.42E-09,  avg # of iterations =  4.7

     total cpu time spent up to now is       19.7 secs

     total energy              =     -55.68477964 Ry
     estimated scf accuracy    <       0.00000025 Ry

     total magnetization       =     3.11 Bohr mag/cell
     absolute magnetization    =     3.44 Bohr mag/cell

     iteration # 11     ecut=    30.00 Ry     beta= 0.50
     Davidson diagonalization with overlap
     ethr =  3.19E-09,  avg # of iterations =  1.2

     total cpu time spent up to now is       21.2 secs

     total energy              =     -55.68477964 Ry
     estimated scf accuracy    <       0.00000021 Ry

     total magnetization       =     3.11 Bohr mag/cell
     absolute magnetization    =     3.44 Bohr mag/cell

     iteration # 12     ecut=    30.00 Ry     beta= 0.50
     Davidson diagonalization with overlap
     ethr =  2.59E-09,  avg # of iterations =  1.1

     Magnetic moment per site  (integrated on atomic sphere of radius R)
     atom   1 (R=0.413)  charge=  6.8921  magn=  3.2597

     total cpu time spent up to now is       22.6 secs

     End of self-consistent calculation

     Number of k-points >= 100: set verbosity='high' to print the bands.

     the Fermi energy is     5.1617 ev

!    total energy              =     -55.68477960 Ry
     estimated scf accuracy    <       0.00000007 Ry
     smearing contrib. (-TS)   =      -0.00060775 Ry
     internal energy E=F+TS    =     -55.68417185 Ry

     The total energy is F=E-TS. E is the sum of the following terms:
     one-electron contribution =      -5.86363462 Ry
     hartree contribution      =      10.67003584 Ry
     xc contribution           =     -26.25413917 Ry
     ewald contribution        =     -34.23643390 Ry

     total magnetization       =     3.11 Bohr mag/cell
     absolute magnetization    =     3.44 Bohr mag/cell

     convergence has been achieved in  12 iterations

     Forces acting on atoms (cartesian axes, Ry/au):

     atom    1 type  1   force =     0.00000000    0.00000000    0.00000000

     Total force =     0.000000     Total SCF correction =     0.000000


     Computing stress (Cartesian axis) and pressure

          total   stress  (Ry/bohr**3)                   (kbar)     P=     -234.91
  -0.00159692   0.00000000   0.00000000         -234.91        0.00        0.00
   0.00000000  -0.00159692   0.00000000            0.00     -234.91        0.00
   0.00000000   0.00000000  -0.00159692            0.00        0.00     -234.91

     Message from routine punch:
     Nothing written, as per user request (disk_io='none')

     init_run     :      1.28s CPU      1.38s WALL (       1 calls)
     electrons    :     19.25s CPU     21.06s WALL (       1 calls)
     forces       :      0.11s CPU      0.12s WALL (       1 calls)
     stress       :      0.63s CPU      0.64s WALL (       1 calls)

     Called by init_run:
     wfcinit      :      0.63s CPU      0.70s WALL (       1 calls)
     potinit      :      0.21s CPU      0.23s WALL (       1 calls)
     hinit0       :      0.39s CPU      0.39s WALL (       1 calls)

     Called by electrons:
     c_bands      :     15.25s CPU     16.72s WALL (      12 calls)
     sum_band     :      3.22s CPU      3.56s WALL (      12 calls)
     v_of_rho     :      0.40s CPU      0.43s WALL (      13 calls)
     newd         :      0.36s CPU      0.38s WALL (      13 calls)
     mix_rho      :      0.03s CPU      0.03s WALL (      12 calls)

     Called by c_bands:
     init_us_2    :      0.42s CPU      0.47s WALL (    5616 calls)
     cegterg      :     14.44s CPU     15.83s WALL (    2496 calls)

     Called by *egterg:
     cdiaghg      :      0.94s CPU      1.03s WALL (    9023 calls)
     h_psi        :     12.84s CPU     14.09s WALL (    9231 calls)
     s_psi        :      0.12s CPU      0.14s WALL (    9231 calls)
     g_psi        :      0.04s CPU      0.05s WALL (    6527 calls)

     Called by h_psi:
     h_psi:calbec :      0.42s CPU      0.46s WALL (    9231 calls)
     vloc_psi     :     12.15s CPU     13.33s WALL (    9231 calls)
     add_vuspsi   :      0.15s CPU      0.17s WALL (    9231 calls)

     General routines
     calbec       :      0.62s CPU      0.68s WALL (   15263 calls)
     fft          :      0.37s CPU      0.38s WALL (     363 calls)
     ffts         :      0.15s CPU      0.15s WALL (      50 calls)
     fftw         :     12.39s CPU     13.63s WALL (  123462 calls)
     interpolate  :      0.17s CPU      0.17s WALL (      26 calls)

     Parallel routines

     PWSCF        :     21.43s CPU     23.37s WALL


   This run was terminated on:   0:43:46  21Oct2025            

=------------------------------------------------------------------------------=
   JOB DONE.
=------------------------------------------------------------------------------=
