LAMMPS (22 Jul 2025 - Update 1)
# ---------- 1. Initialize simulation ---------------------
units metal
atom_style atomic
dimension  3
boundary   p p p
read_data /home/bond/Work/Lab1/Vacancy/EAM/relax/9/lammps.data
Reading data file ...
  orthogonal box = (0 0 0) to (36.734894 36.734894 36.734894)
  1 by 1 by 1 MPI processor grid
  reading atoms ...
  2915 atoms
  read_data CPU = 0.008 seconds

# ---------- 2. Specify interatomic potential ---------------------
pair_style eam/alloy
pair_coeff * * /home/bond/Software/LAMMPS/lammps-22Jul2025/potentials/Al_zhou.eam.alloy  Al
Reading eam/alloy potential file /home/bond/Software/LAMMPS/lammps-22Jul2025/potentials/Al_zhou.eam.alloy with DATE: 2007-10-12

# pair_style lj/cut 4.5
# pair_coeff 1 1 0.392 2.620 4.5

# ---------- 3. Run single point calculation  ---------------------
thermo_style custom step pe lx ly lz press pxx pyy pzz
run 0
WARNING: No fixes with time integration, atoms won't move
For more information see https://docs.lammps.org/err0028 (../verlet.cpp:60)
Neighbor list info ...
  update: every = 1 steps, delay = 0 steps, check = yes
  max neighbors/atom: 2000, page size: 100000
  master list distance cutoff = 12.1025
  ghost atom cutoff = 12.1025
  binsize = 6.05125, bins = 7 7 7
  1 neighbor lists, perpetual/occasional/extra = 1 0 0
  (1) pair eam/alloy, perpetual
      attributes: half, newton on
      pair build: half/bin/atomonly/newton
      stencil: half/bin/3d
      bin: standard
Per MPI rank memory allocation (min/avg/max) = 6.046 | 6.046 | 6.046 Mbytes
   Step         PotEng           Lx             Ly             Lz           Press           Pxx            Pyy            Pzz      
         0  -10434.889      36.734894      36.734894      36.734894     -97.64387      -97.643898     -97.643815     -97.643898    
Loop time of 2.164e-06 on 1 procs for 0 steps with 2915 atoms

138.6% CPU use with 1 MPI tasks x no OpenMP threads

MPI task timing breakdown:
Section |  min time  |  avg time  |  max time  |%varavg| %total
---------------------------------------------------------------
Pair    | 0          | 0          | 0          |   0.0 |  0.00
Neigh   | 0          | 0          | 0          |   0.0 |  0.00
Comm    | 0          | 0          | 0          |   0.0 |  0.00
Output  | 0          | 0          | 0          |   0.0 |  0.00
Modify  | 0          | 0          | 0          |   0.0 |  0.00
Other   |            | 2.164e-06  |            |       |100.00

Nlocal:           2915 ave        2915 max        2915 min
Histogram: 1 0 0 0 0 0 0 0 0 0
Nghost:           9271 ave        9271 max        9271 min
Histogram: 1 0 0 0 0 0 0 0 0 0
Neighs:         623596 ave      623596 max      623596 min
Histogram: 1 0 0 0 0 0 0 0 0 0

Total # of neighbors = 623596
Ave neighs/atom = 213.92659
Neighbor list builds = 0
Dangerous builds = 0
# -- include optimization of the unit cell parameter
fix 1 all box/relax iso 0.0 vmax 0.001

# -- enable optimization of atomic positions (and the cell)
min_style cg
minimize 1e-10 1e-10 1000 10000
WARNING: Energy due to 1 extra global DOFs will be included in minimizer energies
 (../min.cpp:222)
Per MPI rank memory allocation (min/avg/max) = 7.171 | 7.171 | 7.171 Mbytes
   Step         PotEng           Lx             Ly             Lz           Press           Pxx            Pyy            Pzz      
         0  -10434.889      36.734894      36.734894      36.734894     -97.64387      -97.643898     -97.643815     -97.643898    
        11  -10434.976      36.733457      36.733457      36.733457     -4.855981      -4.8559932     -4.8559568     -4.8559932    
Loop time of 0.671688 on 1 procs for 11 steps with 2915 atoms

99.9% CPU use with 1 MPI tasks x no OpenMP threads

Minimization stats:
  Stopping criterion = energy tolerance
  Energy initial, next-to-last, final = 
     -10434.8890599282  -10434.9764270165  -10434.9764274458
  Force two-norm initial, final = 9.0972467 0.46387734
  Force max component initial, final = 9.0634232 0.45070282
  Final line search alpha, max atom move = 0.037191008 0.016762092
  Iterations, force evaluations = 11 22

MPI task timing breakdown:
Section |  min time  |  avg time  |  max time  |%varavg| %total
---------------------------------------------------------------
Pair    | 0.664      | 0.664      | 0.664      |   0.0 | 98.86
Neigh   | 0          | 0          | 0          |   0.0 |  0.00
Comm    | 0.001323   | 0.001323   | 0.001323   |   0.0 |  0.20
Output  | 0          | 0          | 0          |   0.0 |  0.00
Modify  | 0          | 0          | 0          |   0.0 |  0.00
Other   |            | 0.006365   |            |       |  0.95

Nlocal:           2915 ave        2915 max        2915 min
Histogram: 1 0 0 0 0 0 0 0 0 0
Nghost:           9271 ave        9271 max        9271 min
Histogram: 1 0 0 0 0 0 0 0 0 0
Neighs:         623596 ave      623596 max      623596 min
Histogram: 1 0 0 0 0 0 0 0 0 0

Total # of neighbors = 623596
Ave neighs/atom = 213.92659
Neighbor list builds = 0
Dangerous builds = 0

# ---- 4. Define and print useful variables -------------
variable natoms equal "count(all)"
variable totenergy equal "pe"
variable length equal "lx"

print "Total energy (eV) = ${totenergy}"
Total energy (eV) = -10434.9764274458
print "Number of atoms = ${natoms}"
Number of atoms = 2915
print "Lattice constant (Angstoms) = ${length}"
Lattice constant (Angstoms) = 36.7334571131614
Total wall time: 0:00:00
