
     Program PWSCF v.7.4.1 starts on 20Oct2025 at 17:55:43 

     This program is part of the open-source Quantum ESPRESSO suite
     for quantum simulation of materials; please cite
         "P. Giannozzi et al., J. Phys.:Condens. Matter 21 395502 (2009);
         "P. Giannozzi et al., J. Phys.:Condens. Matter 29 465901 (2017);
         "P. Giannozzi et al., J. Chem. Phys. 152 154105 (2020);
          URL http://www.quantum-espresso.org", 
     in publications or presentations arising from this work. More details at
     http://www.quantum-espresso.org/quote

     Parallel version (MPI), running on     2 processors

     MPI processes distributed on     1 nodes
     267 MiB available memory on the printing compute node when the environment starts

     Waiting for input...
     Reading input from standard input

     Current dimensions of program PWSCF are:
     Max number of different atomic species (ntypx) = 10
     Max number of k-points (npk) =  40000
     Max angular momentum in pseudopotentials (lmaxx) =  4
     file Fe.pbe-nd-rrkjus.UPF: wavefunction(s)  4S renormalized
     Message from routine find_sym:
     Not a group! Trying with lower acceptance parameter...
     Message from routine find_sym:
     Symmetry operations form a group
     Message from routine setup:
     using ibrav=0 with symmetry is DISCOURAGED, use correct ibrav instead

     R & G space division:  proc/nbgrp/npool/nimage =       2
     Subspace diagonalization in iterative solution of the eigenvalue problem:
     a serial algorithm will be used


     Parallelization info
     --------------------
     sticks:   dense  smooth     PW     G-vecs:    dense   smooth      PW
     Min         273     105     36                 7823     1983     386
     Max         274     106     37                 7826     1986     387
     Sum         547     211     73                15649     3969     773

     Using Slab Decomposition



     bravais-lattice index     =            0
     lattice parameter (alat)  =       5.1023  a.u.
     unit-cell volume          =     178.9386 (a.u.)^3
     number of atoms/cell      =            2
     number of atomic types    =            1
     number of electrons       =        16.00
     number of Kohn-Sham states=           12
     kinetic-energy cutoff     =      30.0000  Ry
     charge density cutoff     =     300.0000  Ry
     scf convergence threshold =      1.0E-07
     mixing beta               =       0.5000
     number of iterations used =            8  plain     mixing
     energy convergence thresh.=      1.0E-04
     force convergence thresh. =      1.0E-03
     press convergence thresh. =      5.0E-01
     Exchange-correlation=  SLA  PW   PBE  PBE
                           (   1   4   3   4   0   0   0)
     nstep                     =           50


     celldm(1)=   5.102261  celldm(2)=   0.000000  celldm(3)=   0.000000
     celldm(4)=   0.000000  celldm(5)=   0.000000  celldm(6)=   0.000000

     crystal axes: (cart. coord. in units of alat)
               a(1) = (   1.000000   0.000000   0.000000 )  
               a(2) = (  -0.500000   0.866025   0.000000 )  
               a(3) = (   0.000000   0.000000   1.555556 )  

     reciprocal axes: (cart. coord. in units 2 pi/alat)
               b(1) = (  1.000000  0.577350 -0.000000 )  
               b(2) = (  0.000000  1.154701  0.000000 )  
               b(3) = (  0.000000 -0.000000  0.642857 )  


     PseudoPot. # 1 for Fe read from file:
     /home/bond/Software/QE/qe-7.4.1/pseudo/Fe.pbe-nd-rrkjus.UPF
     MD5 check sum: 398036227a04b607635f6f5e8dfd8242
     Pseudo is Ultrasoft + core correction, Zval =  8.0
     Generated by new atomic code, or converted to UPF format
     Using radial grid of  957 points,  6 beta functions with: 
                l(1) =   0
                l(2) =   0
                l(3) =   1
                l(4) =   1
                l(5) =   2
                l(6) =   2
     Q(r) pseudized with 0 coefficients 


     atomic species   valence    mass     pseudopotential
     Fe                8.00    55.84500     Fe( 1.00)

     Starting magnetic structure 
     atomic species   magnetization
     Fe              0.700

      4 Sym. Ops. (no inversion) found



   Cartesian axes

     site n.     atom                  positions (alat units)
         1        Fe     tau(   1) = (   0.0000000   0.0000000   0.0000000  )
         2        Fe     tau(   2) = (   0.0000000   0.5773519   0.7777778  )

     number of k points=    75  Methfessel-Paxton smearing, width (Ry)=  0.0200
                       cart. coord. in units 2pi/alat
        k(    1) = (   0.0000000   0.0000000   0.0000000), wk =   0.0030864
        k(    2) = (   0.0000000   0.0000000   0.1607143), wk =   0.0061728
        k(    3) = (   0.0000000   0.0000000  -0.3214286), wk =   0.0030864
        k(    4) = (   0.0000000   0.1283001   0.0000000), wk =   0.0061728
        k(    5) = (   0.0000000   0.1283001   0.1607143), wk =   0.0123457
        k(    6) = (   0.0000000   0.1283001  -0.3214286), wk =   0.0061728
        k(    7) = (   0.0000000   0.2566001   0.0000000), wk =   0.0061728
        k(    8) = (   0.0000000   0.2566001   0.1607143), wk =   0.0123457
        k(    9) = (   0.0000000   0.2566001  -0.3214286), wk =   0.0061728
        k(   10) = (   0.0000000   0.3849002   0.0000000), wk =   0.0061728
        k(   11) = (   0.0000000   0.3849002   0.1607143), wk =   0.0123457
        k(   12) = (   0.0000000   0.3849002  -0.3214286), wk =   0.0061728
        k(   13) = (   0.0000000   0.5132002   0.0000000), wk =   0.0061728
        k(   14) = (   0.0000000   0.5132002   0.1607143), wk =   0.0123457
        k(   15) = (   0.0000000   0.5132002  -0.3214286), wk =   0.0061728
        k(   16) = (   0.1111111   0.1924501   0.0000000), wk =   0.0123457
        k(   17) = (   0.1111111   0.1924501   0.1607143), wk =   0.0246914
        k(   18) = (   0.1111111   0.1924501  -0.3214286), wk =   0.0123457
        k(   19) = (   0.1111111   0.3207501   0.0000000), wk =   0.0123457
        k(   20) = (   0.1111111   0.3207501   0.1607143), wk =   0.0246914
        k(   21) = (   0.1111111   0.3207501  -0.3214286), wk =   0.0123457
        k(   22) = (   0.1111111   0.4490502   0.0000000), wk =   0.0123457
        k(   23) = (   0.1111111   0.4490502   0.1607143), wk =   0.0246914
        k(   24) = (   0.1111111   0.4490502  -0.3214286), wk =   0.0123457
        k(   25) = (   0.1111111   0.5773503   0.0000000), wk =   0.0061728
        k(   26) = (   0.1111111   0.5773503   0.1607143), wk =   0.0123457
        k(   27) = (   0.1111111   0.5773503  -0.3214286), wk =   0.0061728
        k(   28) = (   0.2222222   0.3849002   0.0000000), wk =   0.0123457
        k(   29) = (   0.2222222   0.3849002   0.1607143), wk =   0.0246914
        k(   30) = (   0.2222222   0.3849002  -0.3214286), wk =   0.0123457
        k(   31) = (   0.2222222   0.5132002   0.0000000), wk =   0.0123457
        k(   32) = (   0.2222222   0.5132002   0.1607143), wk =   0.0246914
        k(   33) = (   0.2222222   0.5132002  -0.3214286), wk =   0.0123457
        k(   34) = (   0.3333333   0.5773503   0.0000000), wk =   0.0061728
        k(   35) = (   0.3333333   0.5773503   0.1607143), wk =   0.0123457
        k(   36) = (   0.3333333   0.5773503  -0.3214286), wk =   0.0061728
        k(   37) = (   0.1111111  -0.0641500   0.0000000), wk =   0.0123457
        k(   38) = (   0.1111111  -0.0641500   0.1607143), wk =   0.0246914
        k(   39) = (   0.1111111  -0.0641500  -0.3214286), wk =   0.0123457
        k(   40) = (   0.2222222  -0.1283001   0.0000000), wk =   0.0123457
        k(   41) = (   0.2222222  -0.1283001   0.1607143), wk =   0.0246914
        k(   42) = (   0.2222222  -0.1283001  -0.3214286), wk =   0.0123457
        k(   43) = (   0.3333333  -0.1924501   0.0000000), wk =   0.0123457
        k(   44) = (   0.3333333  -0.1924501   0.1607143), wk =   0.0246914
        k(   45) = (   0.3333333  -0.1924501  -0.3214286), wk =   0.0123457
        k(   46) = (   0.4444444  -0.2566001   0.0000000), wk =   0.0123457
        k(   47) = (   0.4444444  -0.2566001   0.1607143), wk =   0.0246914
        k(   48) = (   0.4444444  -0.2566001  -0.3214286), wk =   0.0123457
        k(   49) = (   0.2222222   0.0000000   0.0000000), wk =   0.0061728
        k(   50) = (   0.2222222   0.0000000  -0.1607143), wk =   0.0123457
        k(   51) = (   0.2222222   0.0000000   0.3214286), wk =   0.0061728
        k(   52) = (   0.2222222  -0.2566001   0.0000000), wk =   0.0123457
        k(   53) = (   0.3333333  -0.0641500   0.0000000), wk =   0.0123457
        k(   54) = (   0.2222222  -0.2566001   0.1607143), wk =   0.0246914
        k(   55) = (   0.3333333  -0.0641500  -0.1607143), wk =   0.0246914
        k(   56) = (   0.2222222  -0.2566001  -0.3214286), wk =   0.0123457
        k(   57) = (   0.3333333  -0.0641500   0.3214286), wk =   0.0123457
        k(   58) = (   0.3333333  -0.3207501   0.0000000), wk =   0.0123457
        k(   59) = (   0.4444444  -0.1283001   0.0000000), wk =   0.0123457
        k(   60) = (   0.3333333  -0.3207501   0.1607143), wk =   0.0246914
        k(   61) = (   0.4444444  -0.1283001  -0.1607143), wk =   0.0246914
        k(   62) = (   0.3333333  -0.3207501  -0.3214286), wk =   0.0123457
        k(   63) = (   0.4444444  -0.1283001   0.3214286), wk =   0.0123457
        k(   64) = (   0.4444444  -0.3849002   0.0000000), wk =   0.0123457
        k(   65) = (   0.4444444  -0.3849002   0.1607143), wk =   0.0246914
        k(   66) = (   0.4444444  -0.3849002  -0.3214286), wk =   0.0123457
        k(   67) = (   0.4444444   0.0000000   0.0000000), wk =   0.0061728
        k(   68) = (   0.4444444   0.0000000  -0.1607143), wk =   0.0123457
        k(   69) = (   0.4444444   0.0000000   0.3214286), wk =   0.0061728
        k(   70) = (   0.3333333  -0.4490502   0.0000000), wk =   0.0123457
        k(   71) = (   0.5555556  -0.0641500   0.0000000), wk =   0.0123457
        k(   72) = (   0.3333333  -0.4490502   0.1607143), wk =   0.0246914
        k(   73) = (   0.5555556  -0.0641500  -0.1607143), wk =   0.0246914
        k(   74) = (   0.3333333  -0.4490502  -0.3214286), wk =   0.0123457
        k(   75) = (   0.5555556  -0.0641500   0.3214286), wk =   0.0123457

     Dense  grid:    15649 G-vectors     FFT dimensions: (  30,  30,  45)

     Smooth grid:     3969 G-vectors     FFT dimensions: (  18,  18,  27)

     Estimated max dynamical RAM per process >      41.76 MB

     Estimated total dynamical RAM >      83.53 MB

     Check: negative core charge=   -0.000008
     Generating pointlists ...
     new r_m :   0.3996 (alat units)  2.0387 (a.u.) for type    1

     Initial potential from superposition of free atoms

     starting charge      15.9987, renormalised to      16.0000
     Starting wfcs are   12 randomized atomic wfcs

     total cpu time spent up to now is        1.4 secs

     Self-consistent Calculation

     iteration #  1     ecut=    30.00 Ry     beta= 0.50
     Davidson diagonalization with overlap
     ethr =  1.00E-02,  avg # of iterations =  3.6

     total cpu time spent up to now is        2.8 secs

     total energy              =    -111.34324286 Ry
     estimated scf accuracy    <       0.56670212 Ry

     total magnetization       =     6.83 Bohr mag/cell
     absolute magnetization    =     6.84 Bohr mag/cell

     iteration #  2     ecut=    30.00 Ry     beta= 0.50
     Davidson diagonalization with overlap
     ethr =  3.54E-03,  avg # of iterations =  2.0

     total cpu time spent up to now is        4.2 secs

     total energy              =    -111.52798969 Ry
     estimated scf accuracy    <       0.06262062 Ry

     total magnetization       =     6.10 Bohr mag/cell
     absolute magnetization    =     6.12 Bohr mag/cell

     iteration #  3     ecut=    30.00 Ry     beta= 0.50
     Davidson diagonalization with overlap
     ethr =  3.91E-04,  avg # of iterations =  1.8

     total cpu time spent up to now is        5.1 secs

     total energy              =    -111.56125329 Ry
     estimated scf accuracy    <       0.01154324 Ry

     total magnetization       =     5.97 Bohr mag/cell
     absolute magnetization    =     6.03 Bohr mag/cell

     iteration #  4     ecut=    30.00 Ry     beta= 0.50
     Davidson diagonalization with overlap
     ethr =  7.21E-05,  avg # of iterations =  2.6

     total cpu time spent up to now is        6.2 secs

     total energy              =    -111.56297144 Ry
     estimated scf accuracy    <       0.14705194 Ry

     total magnetization       =     5.68 Bohr mag/cell
     absolute magnetization    =     5.88 Bohr mag/cell

     iteration #  5     ecut=    30.00 Ry     beta= 0.50
     Davidson diagonalization with overlap
     ethr =  7.21E-05,  avg # of iterations =  1.2

     total cpu time spent up to now is        7.2 secs

     total energy              =    -111.56926969 Ry
     estimated scf accuracy    <       0.00105804 Ry

     total magnetization       =     5.67 Bohr mag/cell
     absolute magnetization    =     5.89 Bohr mag/cell

     iteration #  6     ecut=    30.00 Ry     beta= 0.50
     Davidson diagonalization with overlap
     ethr =  6.61E-06,  avg # of iterations =  3.0

     total cpu time spent up to now is        8.4 secs

     total energy              =    -111.56987355 Ry
     estimated scf accuracy    <       0.00036201 Ry

     total magnetization       =     5.67 Bohr mag/cell
     absolute magnetization    =     5.90 Bohr mag/cell

     iteration #  7     ecut=    30.00 Ry     beta= 0.50
     Davidson diagonalization with overlap
     ethr =  2.26E-06,  avg # of iterations =  1.9

     total cpu time spent up to now is        9.4 secs

     total energy              =    -111.56994467 Ry
     estimated scf accuracy    <       0.00006606 Ry

     total magnetization       =     5.67 Bohr mag/cell
     absolute magnetization    =     5.91 Bohr mag/cell

     iteration #  8     ecut=    30.00 Ry     beta= 0.50
     Davidson diagonalization with overlap
     ethr =  4.13E-07,  avg # of iterations =  3.5

     total cpu time spent up to now is       10.5 secs

     total energy              =    -111.56994722 Ry
     estimated scf accuracy    <       0.00008284 Ry

     total magnetization       =     5.67 Bohr mag/cell
     absolute magnetization    =     5.91 Bohr mag/cell

     iteration #  9     ecut=    30.00 Ry     beta= 0.50
     Davidson diagonalization with overlap
     ethr =  4.13E-07,  avg # of iterations =  1.9

     total cpu time spent up to now is       11.5 secs

     total energy              =    -111.56995710 Ry
     estimated scf accuracy    <       0.00000854 Ry

     total magnetization       =     5.67 Bohr mag/cell
     absolute magnetization    =     5.92 Bohr mag/cell

     iteration # 10     ecut=    30.00 Ry     beta= 0.50
     Davidson diagonalization with overlap
     ethr =  5.34E-08,  avg # of iterations =  4.8

     total cpu time spent up to now is       13.0 secs

     total energy              =    -111.56996342 Ry
     estimated scf accuracy    <       0.00000069 Ry

     total magnetization       =     5.67 Bohr mag/cell
     absolute magnetization    =     5.92 Bohr mag/cell

     iteration # 11     ecut=    30.00 Ry     beta= 0.50
     Davidson diagonalization with overlap
     ethr =  4.32E-09,  avg # of iterations =  5.8

     total cpu time spent up to now is       14.9 secs

     total energy              =    -111.56996416 Ry
     estimated scf accuracy    <       0.00000075 Ry

     total magnetization       =     5.67 Bohr mag/cell
     absolute magnetization    =     5.92 Bohr mag/cell

     iteration # 12     ecut=    30.00 Ry     beta= 0.50
     Davidson diagonalization with overlap
     ethr =  4.32E-09,  avg # of iterations =  1.8

     total cpu time spent up to now is       16.2 secs

     total energy              =    -111.56996421 Ry
     estimated scf accuracy    <       0.00000028 Ry

     total magnetization       =     5.67 Bohr mag/cell
     absolute magnetization    =     5.92 Bohr mag/cell

     iteration # 13     ecut=    30.00 Ry     beta= 0.50
     Davidson diagonalization with overlap
     ethr =  1.76E-09,  avg # of iterations =  2.2

     Magnetic moment per site  (integrated on atomic sphere of radius R)
     atom   1 (R=0.400)  charge=  6.6236  magn=  2.8832
     atom   2 (R=0.400)  charge=  6.6227  magn=  2.8835

     total cpu time spent up to now is       17.8 secs

     End of self-consistent calculation

     Number of k-points >= 100: set verbosity='high' to print the bands.

     the Fermi energy is    11.5857 ev

!    total energy              =    -111.56996427 Ry
     estimated scf accuracy    <       0.00000001 Ry
     smearing contrib. (-TS)   =       0.00017257 Ry
     internal energy E=F+TS    =    -111.57013684 Ry

     The total energy is F=E-TS. E is the sum of the following terms:
     one-electron contribution =       9.12878450 Ry
     hartree contribution      =      14.77546725 Ry
     xc contribution           =     -52.84602455 Ry
     ewald contribution        =     -82.62836405 Ry

     total magnetization       =     5.67 Bohr mag/cell
     absolute magnetization    =     5.92 Bohr mag/cell

     convergence has been achieved in  13 iterations

     Forces acting on atoms (cartesian axes, Ry/au):

     atom    1 type  1   force =     0.00000000    0.00000404    0.00000000
     atom    2 type  1   force =     0.00000000   -0.00000404    0.00000000

     Total force =     0.000006     Total SCF correction =     0.000023
     SCF correction compared to forces is large: reduce conv_thr to get better values


     Computing stress (Cartesian axis) and pressure

          total   stress  (Ry/bohr**3)                   (kbar)     P=      -87.90
  -0.00080660   0.00000000   0.00000000         -118.66        0.00        0.00
   0.00000000  -0.00080663   0.00000000            0.00     -118.66        0.00
   0.00000000   0.00000000  -0.00017937            0.00        0.00      -26.39


     BFGS Geometry Optimization
     Energy error            =      6.2E-03 Ry
     Gradient error          =      4.0E-06 Ry/Bohr
     Cell gradient error     =      1.2E+02 kbar

     number of scf cycles    =   1
     number of bfgs steps    =   0

     enthalpy           new  =    -111.5699642745 Ry

     new trust radius        =       0.0539506109 bohr
     new conv_thr            =       0.0000001000 Ry

     new unit-cell volume =    171.02427 a.u.^3 (    25.34318 Ang^3 )
     density =      7.31817 g/cm^3

CELL_PARAMETERS (angstrom)
   2.645554269   0.000000000   0.000000000
  -1.322777135   2.291115654   0.000000000
   0.000000000   0.000000000   4.181166542

ATOMIC_POSITIONS (angstrom)
Fe               0.0000000000        0.0000020967        0.0000000000
Fe               0.0000000000        1.5274125264        2.0905832711


     Message from routine punch:
     Nothing written, as per user request (disk_io='none')
     NEW-OLD atomic charge density approx. for the potential
     New effective cutoffs (rho, wfc):  312.33   31.24

     Check: negative core charge=   -0.000005
     Generating pointlists ...
     new r_m :   0.3956 (alat units)  2.0182 (a.u.) for type    1

     total cpu time spent up to now is       19.1 secs

     Self-consistent Calculation

     iteration #  1     ecut=    30.00 Ry     beta= 0.50
     Davidson diagonalization with overlap
     ethr =  1.00E-06,  avg # of iterations =  6.1

     total cpu time spent up to now is       22.2 secs

     total energy              =    -111.57426358 Ry
     estimated scf accuracy    <       0.00022911 Ry

     total magnetization       =     5.64 Bohr mag/cell
     absolute magnetization    =     5.87 Bohr mag/cell

     iteration #  2     ecut=    30.00 Ry     beta= 0.50
     Davidson diagonalization with overlap
     ethr =  1.43E-06,  avg # of iterations =  1.4

     total cpu time spent up to now is       23.2 secs

     total energy              =    -111.57426200 Ry
     estimated scf accuracy    <       0.00021975 Ry

     total magnetization       =     5.63 Bohr mag/cell
     absolute magnetization    =     5.86 Bohr mag/cell

     iteration #  3     ecut=    30.00 Ry     beta= 0.50
     Davidson diagonalization with overlap
     ethr =  1.37E-06,  avg # of iterations =  1.6

     total cpu time spent up to now is       24.5 secs

     total energy              =    -111.57426086 Ry
     estimated scf accuracy    <       0.00172826 Ry

     total magnetization       =     5.63 Bohr mag/cell
     absolute magnetization    =     5.86 Bohr mag/cell

     iteration #  4     ecut=    30.00 Ry     beta= 0.50
     Davidson diagonalization with overlap
     ethr =  1.37E-06,  avg # of iterations =  1.4

     total cpu time spent up to now is       25.4 secs

     total energy              =    -111.57436941 Ry
     estimated scf accuracy    <       0.00002088 Ry

     total magnetization       =     5.62 Bohr mag/cell
     absolute magnetization    =     5.85 Bohr mag/cell

     iteration #  5     ecut=    30.00 Ry     beta= 0.50
     Davidson diagonalization with overlap
     ethr =  1.30E-07,  avg # of iterations =  2.2

     total cpu time spent up to now is       26.5 secs

     total energy              =    -111.57437891 Ry
     estimated scf accuracy    <       0.00000238 Ry

     total magnetization       =     5.62 Bohr mag/cell
     absolute magnetization    =     5.84 Bohr mag/cell

     iteration #  6     ecut=    30.00 Ry     beta= 0.50
     Davidson diagonalization with overlap
     ethr =  1.49E-08,  avg # of iterations =  3.2

     total cpu time spent up to now is       27.9 secs

     total energy              =    -111.57438094 Ry
     estimated scf accuracy    <       0.00000182 Ry

     total magnetization       =     5.62 Bohr mag/cell
     absolute magnetization    =     5.84 Bohr mag/cell

     iteration #  7     ecut=    30.00 Ry     beta= 0.50
     Davidson diagonalization with overlap
     ethr =  1.14E-08,  avg # of iterations =  1.6

     Magnetic moment per site  (integrated on atomic sphere of radius R)
     atom   1 (R=0.396)  charge=  6.6225  magn=  2.8476
     atom   2 (R=0.396)  charge=  6.6215  magn=  2.8480

     total cpu time spent up to now is       29.0 secs

     End of self-consistent calculation

     Number of k-points >= 100: set verbosity='high' to print the bands.

     the Fermi energy is    12.2191 ev

!    total energy              =    -111.57438125 Ry
     estimated scf accuracy    <       0.00000008 Ry
     smearing contrib. (-TS)   =       0.00012518 Ry
     internal energy E=F+TS    =    -111.57450643 Ry

     The total energy is F=E-TS. E is the sum of the following terms:
     one-electron contribution =      10.94782277 Ry
     hartree contribution      =      14.26877784 Ry
     xc contribution           =     -52.89264464 Ry
     ewald contribution        =     -83.89846240 Ry

     total magnetization       =     5.62 Bohr mag/cell
     absolute magnetization    =     5.84 Bohr mag/cell

     convergence has been achieved in   7 iterations

     Forces acting on atoms (cartesian axes, Ry/au):

     atom    1 type  1   force =     0.00000000   -0.00000190    0.00000000
     atom    2 type  1   force =    -0.00000000    0.00000190   -0.00000000

     Total force =     0.000003     Total SCF correction =     0.000000
     SCF correction compared to forces is large: reduce conv_thr to get better values


     Computing stress (Cartesian axis) and pressure

          total   stress  (Ry/bohr**3)                   (kbar)     P=      -27.95
  -0.00042568   0.00000000  -0.00000000          -62.62        0.00       -0.00
   0.00000000  -0.00042569   0.00000000            0.00      -62.62        0.00
  -0.00000000   0.00000000   0.00028144           -0.00        0.00       41.40

     Energy error            =      4.4E-03 Ry
     Gradient error          =      1.9E-06 Ry/Bohr
     Cell gradient error     =      6.3E+01 kbar

     number of scf cycles    =   2
     number of bfgs steps    =   1

     enthalpy           old  =    -111.5699642745 Ry
     enthalpy           new  =    -111.5743812540 Ry

     CASE: enthalpy          _new < enthalpy          _old

     new trust radius        =       0.0700529637 bohr
     new conv_thr            =       0.0000000010 Ry

     new unit-cell volume =    163.79809 a.u.^3 (    24.27237 Ang^3 )
     density =      7.64102 g/cm^3

CELL_PARAMETERS (angstrom)
   2.574699411   0.000000000   0.000000000
  -1.287349706   2.229751514   0.000000000
  -0.000000000   0.000000000   4.227944085

ATOMIC_POSITIONS (angstrom)
Fe               0.0000000000        0.0000009659        0.0000000000
Fe              -0.0000000000        1.4865041183        2.1139720423


     Message from routine punch:
     Nothing written, as per user request (disk_io='none')
     NEW-OLD atomic charge density approx. for the potential
     New effective cutoffs (rho, wfc):  329.71   32.98

     Check: negative core charge=   -0.000003
     Generating pointlists ...

     total cpu time spent up to now is       29.6 secs

     Self-consistent Calculation

     iteration #  1     ecut=    30.00 Ry     beta= 0.50
     Davidson diagonalization with overlap
     ethr =  1.00E-06,  avg # of iterations =  6.9

     total cpu time spent up to now is       31.9 secs

     total energy              =    -111.57749365 Ry
     estimated scf accuracy    <       0.00097102 Ry

     total magnetization       =     5.44 Bohr mag/cell
     absolute magnetization    =     5.68 Bohr mag/cell

     iteration #  2     ecut=    30.00 Ry     beta= 0.50
     Davidson diagonalization with overlap
     ethr =  6.07E-06,  avg # of iterations =  1.0

     total cpu time spent up to now is       32.8 secs

     total energy              =    -111.57747847 Ry
     estimated scf accuracy    <       0.00141657 Ry

     total magnetization       =     5.40 Bohr mag/cell
     absolute magnetization    =     5.63 Bohr mag/cell

     iteration #  3     ecut=    30.00 Ry     beta= 0.50
     Davidson diagonalization with overlap
     ethr =  6.07E-06,  avg # of iterations =  1.1

     total cpu time spent up to now is       33.9 secs

     total energy              =    -111.57780958 Ry
     estimated scf accuracy    <       0.00371866 Ry

     total magnetization       =     5.38 Bohr mag/cell
     absolute magnetization    =     5.62 Bohr mag/cell

     iteration #  4     ecut=    30.00 Ry     beta= 0.50
     Davidson diagonalization with overlap
     ethr =  6.07E-06,  avg # of iterations =  1.4

     total cpu time spent up to now is       35.1 secs

     total energy              =    -111.57818498 Ry
     estimated scf accuracy    <       0.00008996 Ry

     total magnetization       =     5.32 Bohr mag/cell
     absolute magnetization    =     5.56 Bohr mag/cell

     iteration #  5     ecut=    30.00 Ry     beta= 0.50
     Davidson diagonalization with overlap
     ethr =  5.62E-07,  avg # of iterations =  2.1

     total cpu time spent up to now is       36.1 secs

     total energy              =    -111.57825452 Ry
     estimated scf accuracy    <       0.00000595 Ry

     total magnetization       =     5.28 Bohr mag/cell
     absolute magnetization    =     5.52 Bohr mag/cell

     iteration #  6     ecut=    30.00 Ry     beta= 0.50
     Davidson diagonalization with overlap
     ethr =  3.72E-08,  avg # of iterations =  3.9

     total cpu time spent up to now is       37.3 secs

     total energy              =    -111.57826054 Ry
     estimated scf accuracy    <       0.00000174 Ry

     total magnetization       =     5.27 Bohr mag/cell
     absolute magnetization    =     5.51 Bohr mag/cell

     iteration #  7     ecut=    30.00 Ry     beta= 0.50
     Davidson diagonalization with overlap
     ethr =  1.09E-08,  avg # of iterations =  3.8

     total cpu time spent up to now is       38.5 secs

     total energy              =    -111.57826254 Ry
     estimated scf accuracy    <       0.00000014 Ry

     total magnetization       =     5.27 Bohr mag/cell
     absolute magnetization    =     5.50 Bohr mag/cell

     iteration #  8     ecut=    30.00 Ry     beta= 0.50
     Davidson diagonalization with overlap
     ethr =  8.75E-10,  avg # of iterations =  5.3

     total cpu time spent up to now is       40.1 secs

     total energy              =    -111.57826279 Ry
     estimated scf accuracy    <       0.00000002 Ry

     total magnetization       =     5.27 Bohr mag/cell
     absolute magnetization    =     5.51 Bohr mag/cell

     iteration #  9     ecut=    30.00 Ry     beta= 0.50
     Davidson diagonalization with overlap
     ethr =  1.13E-10,  avg # of iterations =  4.9

     total cpu time spent up to now is       41.4 secs

     total energy              =    -111.57826283 Ry
     estimated scf accuracy    <          1.0E-09 Ry

     total magnetization       =     5.27 Bohr mag/cell
     absolute magnetization    =     5.50 Bohr mag/cell

     iteration # 10     ecut=    30.00 Ry     beta= 0.50
     Davidson diagonalization with overlap
     ethr =  6.30E-12,  avg # of iterations =  5.5

     Magnetic moment per site  (integrated on atomic sphere of radius R)
     atom   1 (R=0.396)  charge=  6.6796  magn=  2.6828
     atom   2 (R=0.396)  charge=  6.6787  magn=  2.6828

     total cpu time spent up to now is       42.8 secs

     End of self-consistent calculation

     Number of k-points >= 100: set verbosity='high' to print the bands.

     the Fermi energy is    12.8213 ev

!    total energy              =    -111.57826284 Ry
     estimated scf accuracy    <          1.5E-10 Ry
     smearing contrib. (-TS)   =      -0.00016908 Ry
     internal energy E=F+TS    =    -111.57809376 Ry

     The total energy is F=E-TS. E is the sum of the following terms:
     one-electron contribution =      12.66564563 Ry
     hartree contribution      =      13.79709607 Ry
     xc contribution           =     -52.91292763 Ry
     ewald contribution        =     -85.12790782 Ry

     total magnetization       =     5.27 Bohr mag/cell
     absolute magnetization    =     5.50 Bohr mag/cell

     convergence has been achieved in  10 iterations

     Forces acting on atoms (cartesian axes, Ry/au):

     atom    1 type  1   force =     0.00000000   -0.00000033    0.00000000
     atom    2 type  1   force =    -0.00000000    0.00000033   -0.00000000

     Total force =     0.000000     Total SCF correction =     0.000000
     SCF correction compared to forces is large: reduce conv_thr to get better values


     Computing stress (Cartesian axis) and pressure

          total   stress  (Ry/bohr**3)                   (kbar)     P=        4.48
  -0.00026133   0.00000000   0.00000000          -38.44        0.00        0.00
   0.00000000  -0.00026136  -0.00000000            0.00      -38.45       -0.00
  -0.00000000  -0.00000000   0.00061410           -0.00       -0.00       90.34

     Energy error            =      3.9E-03 Ry
     Gradient error          =      3.3E-07 Ry/Bohr
     Cell gradient error     =      9.0E+01 kbar

     number of scf cycles    =   3
     number of bfgs steps    =   2

     enthalpy           old  =    -111.5743812540 Ry
     enthalpy           new  =    -111.5782628405 Ry

     CASE: enthalpy          _new < enthalpy          _old

     new trust radius        =       0.0774881486 bohr
     new conv_thr            =       0.0000000010 Ry

     new unit-cell volume =    156.95767 a.u.^3 (    23.25873 Ang^3 )
     density =      7.97402 g/cm^3

CELL_PARAMETERS (angstrom)
   2.496760147   0.000000000   0.000000000
  -1.248380073   2.162250960   0.000000000
  -0.000000000   0.000000000   4.308270959

ATOMIC_POSITIONS (angstrom)
Fe               0.0000000000        0.0000006757        0.0000000000
Fe              -0.0000000000        1.4415039157        2.1541354796


     Message from routine punch:
     Nothing written, as per user request (disk_io='none')
     NEW-OLD atomic charge density approx. for the potential
     New effective cutoffs (rho, wfc):  350.55   35.07

     Check: negative core charge=   -0.000001
     Generating pointlists ...
     new r_m :   0.3814 (alat units)  1.9463 (a.u.) for type    1

     total cpu time spent up to now is       43.5 secs

     Self-consistent Calculation

     iteration #  1     ecut=    30.00 Ry     beta= 0.50
     Davidson diagonalization with overlap
     ethr =  1.00E-06,  avg # of iterations =  7.1

     total cpu time spent up to now is       45.9 secs

     total energy              =    -111.57939946 Ry
     estimated scf accuracy    <       0.00084879 Ry

     total magnetization       =     5.20 Bohr mag/cell
     absolute magnetization    =     5.42 Bohr mag/cell

     iteration #  2     ecut=    30.00 Ry     beta= 0.50
     Davidson diagonalization with overlap
     ethr =  5.30E-06,  avg # of iterations =  1.2

     total cpu time spent up to now is       46.7 secs

     total energy              =    -111.57954234 Ry
     estimated scf accuracy    <       0.00020272 Ry

     total magnetization       =     5.20 Bohr mag/cell
     absolute magnetization    =     5.42 Bohr mag/cell

     iteration #  3     ecut=    30.00 Ry     beta= 0.50
     Davidson diagonalization with overlap
     ethr =  1.27E-06,  avg # of iterations =  2.0

     total cpu time spent up to now is       47.6 secs

     total energy              =    -111.57955148 Ry
     estimated scf accuracy    <       0.00014060 Ry

     total magnetization       =     5.20 Bohr mag/cell
     absolute magnetization    =     5.41 Bohr mag/cell

     iteration #  4     ecut=    30.00 Ry     beta= 0.50
     Davidson diagonalization with overlap
     ethr =  8.79E-07,  avg # of iterations =  2.0

     total cpu time spent up to now is       48.5 secs

     total energy              =    -111.57951378 Ry
     estimated scf accuracy    <       0.00184485 Ry

     total magnetization       =     5.20 Bohr mag/cell
     absolute magnetization    =     5.41 Bohr mag/cell

     iteration #  5     ecut=    30.00 Ry     beta= 0.50
     Davidson diagonalization with overlap
     ethr =  8.79E-07,  avg # of iterations =  1.2

     total cpu time spent up to now is       49.5 secs

     total energy              =    -111.57961500 Ry
     estimated scf accuracy    <       0.00000411 Ry

     total magnetization       =     5.20 Bohr mag/cell
     absolute magnetization    =     5.41 Bohr mag/cell

     iteration #  6     ecut=    30.00 Ry     beta= 0.50
     Davidson diagonalization with overlap
     ethr =  2.57E-08,  avg # of iterations =  4.4

     total cpu time spent up to now is       50.8 secs

     total energy              =    -111.57961994 Ry
     estimated scf accuracy    <       0.00000267 Ry

     total magnetization       =     5.20 Bohr mag/cell
     absolute magnetization    =     5.40 Bohr mag/cell

     iteration #  7     ecut=    30.00 Ry     beta= 0.50
     Davidson diagonalization with overlap
     ethr =  1.67E-08,  avg # of iterations =  1.2

     total cpu time spent up to now is       51.6 secs

     total energy              =    -111.57962037 Ry
     estimated scf accuracy    <       0.00000029 Ry

     total magnetization       =     5.20 Bohr mag/cell
     absolute magnetization    =     5.40 Bohr mag/cell

     iteration #  8     ecut=    30.00 Ry     beta= 0.50
     Davidson diagonalization with overlap
     ethr =  1.83E-09,  avg # of iterations =  5.0

     total cpu time spent up to now is       52.9 secs

     total energy              =    -111.57962064 Ry
     estimated scf accuracy    <          6.4E-09 Ry

     total magnetization       =     5.20 Bohr mag/cell
     absolute magnetization    =     5.40 Bohr mag/cell

     iteration #  9     ecut=    30.00 Ry     beta= 0.50
     Davidson diagonalization with overlap
     ethr =  3.97E-11,  avg # of iterations =  7.2

     total cpu time spent up to now is       54.8 secs

     total energy              =    -111.57962066 Ry
     estimated scf accuracy    <          1.2E-09 Ry

     total magnetization       =     5.20 Bohr mag/cell
     absolute magnetization    =     5.40 Bohr mag/cell

     iteration # 10     ecut=    30.00 Ry     beta= 0.50
     Davidson diagonalization with overlap
     ethr =  7.79E-12,  avg # of iterations =  4.0

     Magnetic moment per site  (integrated on atomic sphere of radius R)
     atom   1 (R=0.381)  charge=  6.5344  magn=  2.6331
     atom   2 (R=0.381)  charge=  6.5349  magn=  2.6332

     total cpu time spent up to now is       55.9 secs

     End of self-consistent calculation

     Number of k-points >= 100: set verbosity='high' to print the bands.

     the Fermi energy is    13.4372 ev

!    total energy              =    -111.57962067 Ry
     estimated scf accuracy    <          5.0E-10 Ry
     smearing contrib. (-TS)   =       0.00019094 Ry
     internal energy E=F+TS    =    -111.57981161 Ry

     The total energy is F=E-TS. E is the sum of the following terms:
     one-electron contribution =      14.31845114 Ry
     hartree contribution      =      13.38244448 Ry
     xc contribution           =     -52.97061543 Ry
     ewald contribution        =     -86.31009180 Ry

     total magnetization       =     5.20 Bohr mag/cell
     absolute magnetization    =     5.40 Bohr mag/cell

     convergence has been achieved in  10 iterations

     Forces acting on atoms (cartesian axes, Ry/au):

     atom    1 type  1   force =     0.00000000   -0.00000061    0.00000000
     atom    2 type  1   force =    -0.00000000    0.00000061   -0.00000000

     Total force =     0.000001     Total SCF correction =     0.000000
     SCF correction compared to forces is large: reduce conv_thr to get better values


     Computing stress (Cartesian axis) and pressure

          total   stress  (Ry/bohr**3)                   (kbar)     P=       84.94
   0.00052337   0.00000000  -0.00000000           76.99        0.00       -0.00
  -0.00000000   0.00052334   0.00000000           -0.00       76.99        0.00
  -0.00000000   0.00000000   0.00068544           -0.00        0.00      100.83

     Energy error            =      1.4E-03 Ry
     Gradient error          =      6.1E-07 Ry/Bohr
     Cell gradient error     =      1.0E+02 kbar

     number of scf cycles    =   4
     number of bfgs steps    =   3

     enthalpy           old  =    -111.5782628405 Ry
     enthalpy           new  =    -111.5796206651 Ry

     CASE: enthalpy          _new < enthalpy          _old

     new trust radius        =       0.0315459546 bohr
     new conv_thr            =       0.0000000010 Ry

     new unit-cell volume =    161.22150 a.u.^3 (    23.89056 Ang^3 )
     density =      7.76313 g/cm^3

CELL_PARAMETERS (angstrom)
   2.528193973   0.000000000   0.000000000
  -1.264096986   2.189473491   0.000000000
  -0.000000000   0.000000000   4.315948563

ATOMIC_POSITIONS (angstrom)
Fe               0.0000000000        0.0000006709        0.0000000000
Fe              -0.0000000000        1.4596523247        2.1579742815


     Message from routine punch:
     Nothing written, as per user request (disk_io='none')
     NEW-OLD atomic charge density approx. for the potential
     New effective cutoffs (rho, wfc):  341.90   34.20

     Check: negative core charge=   -0.000002
     Generating pointlists ...

     total cpu time spent up to now is       56.6 secs

     Self-consistent Calculation

     iteration #  1     ecut=    30.00 Ry     beta= 0.50
     Davidson diagonalization with overlap
     ethr =  1.00E-06,  avg # of iterations =  5.3

     total cpu time spent up to now is       58.2 secs

     total energy              =    -111.58087222 Ry
     estimated scf accuracy    <       0.00010507 Ry

     total magnetization       =     5.21 Bohr mag/cell
     absolute magnetization    =     5.43 Bohr mag/cell

     iteration #  2     ecut=    30.00 Ry     beta= 0.50
     Davidson diagonalization with overlap
     ethr =  6.57E-07,  avg # of iterations =  2.0

     total cpu time spent up to now is       59.2 secs

     total energy              =    -111.58089709 Ry
     estimated scf accuracy    <       0.00003334 Ry

     total magnetization       =     5.21 Bohr mag/cell
     absolute magnetization    =     5.43 Bohr mag/cell

     iteration #  3     ecut=    30.00 Ry     beta= 0.50
     Davidson diagonalization with overlap
     ethr =  2.08E-07,  avg # of iterations =  1.8

     total cpu time spent up to now is       60.4 secs

     total energy              =    -111.58088604 Ry
     estimated scf accuracy    <       0.00023395 Ry

     total magnetization       =     5.21 Bohr mag/cell
     absolute magnetization    =     5.43 Bohr mag/cell

     iteration #  4     ecut=    30.00 Ry     beta= 0.50
     Davidson diagonalization with overlap
     ethr =  2.08E-07,  avg # of iterations =  1.2

     total cpu time spent up to now is       61.2 secs

     total energy              =    -111.58090874 Ry
     estimated scf accuracy    <       0.00002678 Ry

     total magnetization       =     5.21 Bohr mag/cell
     absolute magnetization    =     5.43 Bohr mag/cell

     iteration #  5     ecut=    30.00 Ry     beta= 0.50
     Davidson diagonalization with overlap
     ethr =  1.67E-07,  avg # of iterations =  1.3

     total cpu time spent up to now is       62.0 secs

     total energy              =    -111.58091134 Ry
     estimated scf accuracy    <       0.00000088 Ry

     total magnetization       =     5.21 Bohr mag/cell
     absolute magnetization    =     5.43 Bohr mag/cell

     iteration #  6     ecut=    30.00 Ry     beta= 0.50
     Davidson diagonalization with overlap
     ethr =  5.47E-09,  avg # of iterations =  4.1

     total cpu time spent up to now is       63.3 secs

     total energy              =    -111.58091203 Ry
     estimated scf accuracy    <       0.00000028 Ry

     total magnetization       =     5.21 Bohr mag/cell
     absolute magnetization    =     5.44 Bohr mag/cell

     iteration #  7     ecut=    30.00 Ry     beta= 0.50
     Davidson diagonalization with overlap
     ethr =  1.76E-09,  avg # of iterations =  3.8

     total cpu time spent up to now is       64.5 secs

     total energy              =    -111.58091217 Ry
     estimated scf accuracy    <       0.00000002 Ry

     total magnetization       =     5.21 Bohr mag/cell
     absolute magnetization    =     5.44 Bohr mag/cell

     iteration #  8     ecut=    30.00 Ry     beta= 0.50
     Davidson diagonalization with overlap
     ethr =  1.40E-10,  avg # of iterations =  5.2

     total cpu time spent up to now is       65.9 secs

     total energy              =    -111.58091220 Ry
     estimated scf accuracy    <          1.8E-09 Ry

     total magnetization       =     5.21 Bohr mag/cell
     absolute magnetization    =     5.44 Bohr mag/cell

     iteration #  9     ecut=    30.00 Ry     beta= 0.50
     Davidson diagonalization with overlap
     ethr =  1.16E-11,  avg # of iterations =  5.3

     Magnetic moment per site  (integrated on atomic sphere of radius R)
     atom   1 (R=0.381)  charge=  6.5007  magn=  2.6457
     atom   2 (R=0.381)  charge=  6.5016  magn=  2.6458

     total cpu time spent up to now is       67.5 secs

     End of self-consistent calculation

     Number of k-points >= 100: set verbosity='high' to print the bands.

     the Fermi energy is    13.0272 ev

!    total energy              =    -111.58091220 Ry
     estimated scf accuracy    <          1.5E-10 Ry
     smearing contrib. (-TS)   =       0.00022737 Ry
     internal energy E=F+TS    =    -111.58113957 Ry

     The total energy is F=E-TS. E is the sum of the following terms:
     one-electron contribution =      13.25659782 Ry
     hartree contribution      =      13.65047393 Ry
     xc contribution           =     -52.93224318 Ry
     ewald contribution        =     -85.55596814 Ry

     total magnetization       =     5.21 Bohr mag/cell
     absolute magnetization    =     5.44 Bohr mag/cell

     convergence has been achieved in   9 iterations

     Forces acting on atoms (cartesian axes, Ry/au):

     atom    1 type  1   force =     0.00000000   -0.00000057    0.00000000
     atom    2 type  1   force =    -0.00000000    0.00000057   -0.00000000

     Total force =     0.000001     Total SCF correction =     0.000000


     Computing stress (Cartesian axis) and pressure

          total   stress  (Ry/bohr**3)                   (kbar)     P=       28.51
   0.00005586  -0.00000000   0.00000000            8.22       -0.00        0.00
  -0.00000000   0.00005583  -0.00000000           -0.00        8.21       -0.00
   0.00000000  -0.00000000   0.00046981            0.00       -0.00       69.11

     Energy error            =      1.3E-03 Ry
     Gradient error          =      5.7E-07 Ry/Bohr
     Cell gradient error     =      6.9E+01 kbar

     number of scf cycles    =   5
     number of bfgs steps    =   4

     enthalpy           old  =    -111.5796206651 Ry
     enthalpy           new  =    -111.5809121989 Ry

     CASE: enthalpy          _new < enthalpy          _old

     new trust radius        =       0.0283379146 bohr
     new conv_thr            =       0.0000000010 Ry

     new unit-cell volume =    163.02315 a.u.^3 (    24.15754 Ang^3 )
     density =      7.67734 g/cm^3

CELL_PARAMETERS (angstrom)
   2.528215182   0.000000000   0.000000000
  -1.264107591   2.189489791   0.000000000
  -0.000000000   0.000000000   4.364110360

ATOMIC_POSITIONS (angstrom)
Fe               0.0000000000        0.0000003905        0.0000000000
Fe              -0.0000000000        1.4596634714        2.1820551798


     Message from routine punch:
     Nothing written, as per user request (disk_io='none')
     NEW-OLD atomic charge density approx. for the potential
     New effective cutoffs (rho, wfc):  341.88   34.20

     Check: negative core charge=   -0.000003
     Generating pointlists ...

     total cpu time spent up to now is       68.2 secs

     Self-consistent Calculation

     iteration #  1     ecut=    30.00 Ry     beta= 0.50
     Davidson diagonalization with overlap
     ethr =  1.00E-06,  avg # of iterations =  4.6

     total cpu time spent up to now is       69.7 secs

     total energy              =    -111.58151927 Ry
     estimated scf accuracy    <       0.00003126 Ry

     total magnetization       =     5.22 Bohr mag/cell
     absolute magnetization    =     5.45 Bohr mag/cell

     iteration #  2     ecut=    30.00 Ry     beta= 0.50
     Davidson diagonalization with overlap
     ethr =  1.95E-07,  avg # of iterations =  1.8

     total cpu time spent up to now is       70.6 secs

     total energy              =    -111.58152767 Ry
     estimated scf accuracy    <       0.00001056 Ry

     total magnetization       =     5.23 Bohr mag/cell
     absolute magnetization    =     5.45 Bohr mag/cell

     iteration #  3     ecut=    30.00 Ry     beta= 0.50
     Davidson diagonalization with overlap
     ethr =  6.60E-08,  avg # of iterations =  2.0

     total cpu time spent up to now is       71.8 secs

     total energy              =    -111.58152456 Ry
     estimated scf accuracy    <       0.00004378 Ry

     total magnetization       =     5.23 Bohr mag/cell
     absolute magnetization    =     5.45 Bohr mag/cell

     iteration #  4     ecut=    30.00 Ry     beta= 0.50
     Davidson diagonalization with overlap
     ethr =  6.60E-08,  avg # of iterations =  1.6

     total cpu time spent up to now is       72.6 secs

     total energy              =    -111.58152909 Ry
     estimated scf accuracy    <       0.00003656 Ry

     total magnetization       =     5.23 Bohr mag/cell
     absolute magnetization    =     5.45 Bohr mag/cell

     iteration #  5     ecut=    30.00 Ry     beta= 0.50
     Davidson diagonalization with overlap
     ethr =  6.60E-08,  avg # of iterations =  1.0

     total cpu time spent up to now is       73.4 secs

     total energy              =    -111.58153126 Ry
     estimated scf accuracy    <       0.00000020 Ry

     total magnetization       =     5.23 Bohr mag/cell
     absolute magnetization    =     5.45 Bohr mag/cell

     iteration #  6     ecut=    30.00 Ry     beta= 0.50
     Davidson diagonalization with overlap
     ethr =  1.25E-09,  avg # of iterations =  4.2

     total cpu time spent up to now is       74.6 secs

     total energy              =    -111.58153145 Ry
     estimated scf accuracy    <       0.00000007 Ry

     total magnetization       =     5.23 Bohr mag/cell
     absolute magnetization    =     5.45 Bohr mag/cell

     iteration #  7     ecut=    30.00 Ry     beta= 0.50
     Davidson diagonalization with overlap
     ethr =  4.37E-10,  avg # of iterations =  3.8

     total cpu time spent up to now is       75.7 secs

     total energy              =    -111.58153148 Ry
     estimated scf accuracy    <       0.00000001 Ry

     total magnetization       =     5.23 Bohr mag/cell
     absolute magnetization    =     5.45 Bohr mag/cell

     iteration #  8     ecut=    30.00 Ry     beta= 0.50
     Davidson diagonalization with overlap
     ethr =  7.47E-11,  avg # of iterations =  4.1

     Magnetic moment per site  (integrated on atomic sphere of radius R)
     atom   1 (R=0.381)  charge=  6.4896  magn=  2.6529
     atom   2 (R=0.381)  charge=  6.4903  magn=  2.6530

     total cpu time spent up to now is       76.9 secs

     End of self-consistent calculation

     Number of k-points >= 100: set verbosity='high' to print the bands.

     the Fermi energy is    12.8471 ev

!    total energy              =    -111.58153149 Ry
     estimated scf accuracy    <          1.7E-10 Ry
     smearing contrib. (-TS)   =       0.00024157 Ry
     internal energy E=F+TS    =    -111.58177306 Ry

     The total energy is F=E-TS. E is the sum of the following terms:
     one-electron contribution =      12.78193974 Ry
     hartree contribution      =      13.78222069 Ry
     xc contribution           =     -52.92033261 Ry
     ewald contribution        =     -85.22560089 Ry

     total magnetization       =     5.23 Bohr mag/cell
     absolute magnetization    =     5.45 Bohr mag/cell

     convergence has been achieved in   8 iterations

     Forces acting on atoms (cartesian axes, Ry/au):

     atom    1 type  1   force =     0.00000000   -0.00000061    0.00000000
     atom    2 type  1   force =    -0.00000000    0.00000061   -0.00000000

     Total force =     0.000001     Total SCF correction =     0.000000


     Computing stress (Cartesian axis) and pressure

          total   stress  (Ry/bohr**3)                   (kbar)     P=        9.21
  -0.00001500   0.00000000   0.00000000           -2.21        0.00        0.00
   0.00000000  -0.00001503  -0.00000000            0.00       -2.21       -0.00
   0.00000000  -0.00000000   0.00021785            0.00       -0.00       32.05

     Energy error            =      6.2E-04 Ry
     Gradient error          =      6.1E-07 Ry/Bohr
     Cell gradient error     =      3.2E+01 kbar

     number of scf cycles    =   6
     number of bfgs steps    =   5

     enthalpy           old  =    -111.5809121989 Ry
     enthalpy           new  =    -111.5815314915 Ry

     CASE: enthalpy          _new < enthalpy          _old

     new trust radius        =       0.0274597764 bohr
     new conv_thr            =       0.0000000010 Ry

     new unit-cell volume =    164.06069 a.u.^3 (    24.31129 Ang^3 )
     density =      7.62879 g/cm^3

CELL_PARAMETERS (angstrom)
   2.522722299   0.000000000   0.000000000
  -1.261361150   2.184729074   0.000000000
  -0.000000000   0.000000000   4.411039012

ATOMIC_POSITIONS (angstrom)
Fe               0.0000000000       -0.0000001682       -0.0000000000
Fe              -0.0000000000        1.4564902104        2.2055195059


     Message from routine punch:
     Nothing written, as per user request (disk_io='none')
     NEW-OLD atomic charge density approx. for the potential
     New effective cutoffs (rho, wfc):  343.36   34.35

     Check: negative core charge=   -0.000003
     Generating pointlists ...

     total cpu time spent up to now is       77.5 secs

     Self-consistent Calculation

     iteration #  1     ecut=    30.00 Ry     beta= 0.50
     Davidson diagonalization with overlap
     ethr =  1.00E-06,  avg # of iterations =  4.7

     total cpu time spent up to now is       79.2 secs

     total energy              =    -111.58172445 Ry
     estimated scf accuracy    <       0.00002981 Ry

     total magnetization       =     5.23 Bohr mag/cell
     absolute magnetization    =     5.46 Bohr mag/cell

     iteration #  2     ecut=    30.00 Ry     beta= 0.50
     Davidson diagonalization with overlap
     ethr =  1.86E-07,  avg # of iterations =  1.5

     total cpu time spent up to now is       80.2 secs

     total energy              =    -111.58173119 Ry
     estimated scf accuracy    <       0.00000720 Ry

     total magnetization       =     5.23 Bohr mag/cell
     absolute magnetization    =     5.46 Bohr mag/cell

     iteration #  3     ecut=    30.00 Ry     beta= 0.50
     Davidson diagonalization with overlap
     ethr =  4.50E-08,  avg # of iterations =  2.0

     total cpu time spent up to now is       81.1 secs

     total energy              =    -111.58173205 Ry
     estimated scf accuracy    <       0.00000293 Ry

     total magnetization       =     5.23 Bohr mag/cell
     absolute magnetization    =     5.46 Bohr mag/cell

     iteration #  4     ecut=    30.00 Ry     beta= 0.50
     Davidson diagonalization with overlap
     ethr =  1.83E-08,  avg # of iterations =  1.7

     total cpu time spent up to now is       82.0 secs

     total energy              =    -111.58173229 Ry
     estimated scf accuracy    <       0.00001857 Ry

     total magnetization       =     5.23 Bohr mag/cell
     absolute magnetization    =     5.46 Bohr mag/cell

     iteration #  5     ecut=    30.00 Ry     beta= 0.50
     Davidson diagonalization with overlap
     ethr =  1.83E-08,  avg # of iterations =  1.0

     total cpu time spent up to now is       82.8 secs

     total energy              =    -111.58173333 Ry
     estimated scf accuracy    <       0.00000005 Ry

     total magnetization       =     5.23 Bohr mag/cell
     absolute magnetization    =     5.46 Bohr mag/cell

     iteration #  6     ecut=    30.00 Ry     beta= 0.50
     Davidson diagonalization with overlap
     ethr =  3.34E-10,  avg # of iterations =  6.0

     total cpu time spent up to now is       84.4 secs

     total energy              =    -111.58173344 Ry
     estimated scf accuracy    <       0.00000002 Ry

     total magnetization       =     5.23 Bohr mag/cell
     absolute magnetization    =     5.46 Bohr mag/cell

     iteration #  7     ecut=    30.00 Ry     beta= 0.50
     Davidson diagonalization with overlap
     ethr =  1.49E-10,  avg # of iterations =  2.7

     total cpu time spent up to now is       85.5 secs

     total energy              =    -111.58173345 Ry
     estimated scf accuracy    <          4.5E-09 Ry

     total magnetization       =     5.23 Bohr mag/cell
     absolute magnetization    =     5.46 Bohr mag/cell

     iteration #  8     ecut=    30.00 Ry     beta= 0.50
     Davidson diagonalization with overlap
     ethr =  2.79E-11,  avg # of iterations =  4.5

     Magnetic moment per site  (integrated on atomic sphere of radius R)
     atom   1 (R=0.381)  charge=  6.4845  magn=  2.6563
     atom   2 (R=0.381)  charge=  6.4849  magn=  2.6563

     total cpu time spent up to now is       86.8 secs

     End of self-consistent calculation

     Number of k-points >= 100: set verbosity='high' to print the bands.

     the Fermi energy is    12.7397 ev

!    total energy              =    -111.58173345 Ry
     estimated scf accuracy    <          6.8E-10 Ry
     smearing contrib. (-TS)   =       0.00021698 Ry
     internal energy E=F+TS    =    -111.58195043 Ry

     The total energy is F=E-TS. E is the sum of the following terms:
     one-electron contribution =      12.48806288 Ry
     hartree contribution      =      13.86990426 Ry
     xc contribution           =     -52.91503722 Ry
     ewald contribution        =     -85.02488036 Ry

     total magnetization       =     5.23 Bohr mag/cell
     absolute magnetization    =     5.46 Bohr mag/cell

     convergence has been achieved in   8 iterations

     Forces acting on atoms (cartesian axes, Ry/au):

     atom    1 type  1   force =     0.00000000   -0.00000099    0.00000000
     atom    2 type  1   force =    -0.00000000    0.00000099   -0.00000000

     Total force =     0.000001     Total SCF correction =     0.000000


     Computing stress (Cartesian axis) and pressure

          total   stress  (Ry/bohr**3)                   (kbar)     P=       -0.12
  -0.00000400   0.00000000   0.00000000           -0.59        0.00        0.00
   0.00000000  -0.00000403  -0.00000000            0.00       -0.59       -0.00
   0.00000000  -0.00000000   0.00000558            0.00       -0.00        0.82

     Energy error            =      2.0E-04 Ry
     Gradient error          =      9.9E-07 Ry/Bohr
     Cell gradient error     =      8.2E-01 kbar

     number of scf cycles    =   7
     number of bfgs steps    =   6

     enthalpy           old  =    -111.5815314915 Ry
     enthalpy           new  =    -111.5817334546 Ry

     CASE: enthalpy          _new < enthalpy          _old

     new trust radius        =       0.0008798668 bohr
     new conv_thr            =       0.0000000010 Ry

     new unit-cell volume =    164.06209 a.u.^3 (    24.31149 Ang^3 )
     density =      7.62872 g/cm^3

CELL_PARAMETERS (angstrom)
   2.522301028   0.000000000   0.000000000
  -1.261150514   2.184362291   0.000000000
  -0.000000000   0.000000000   4.412554057

ATOMIC_POSITIONS (angstrom)
Fe               0.0000000000       -0.0000006489       -0.0000000000
Fe              -0.0000000000        1.4562461682        2.2062770285


     Message from routine punch:
     Nothing written, as per user request (disk_io='none')
     NEW-OLD atomic charge density approx. for the potential
     New effective cutoffs (rho, wfc):  343.47   34.36

     Check: negative core charge=   -0.000003
     Generating pointlists ...

     total cpu time spent up to now is       87.4 secs

     Self-consistent Calculation

     iteration #  1     ecut=    30.00 Ry     beta= 0.50
     Davidson diagonalization with overlap
     ethr =  1.00E-06,  avg # of iterations =  2.0

     Threshold (ethr) on eigenvalues was too large:
     Diagonalizing with lowered threshold

     Davidson diagonalization with overlap
     ethr =  1.08E-09,  avg # of iterations =  2.9

     total cpu time spent up to now is       89.6 secs

     total energy              =    -111.58173361 Ry
     estimated scf accuracy    <       0.00000019 Ry

     total magnetization       =     5.23 Bohr mag/cell
     absolute magnetization    =     5.46 Bohr mag/cell

     iteration #  2     ecut=    30.00 Ry     beta= 0.50
     Davidson diagonalization with overlap
     ethr =  1.19E-09,  avg # of iterations =  3.1

     total cpu time spent up to now is       90.7 secs

     total energy              =    -111.58173322 Ry
     estimated scf accuracy    <       0.00000979 Ry

     total magnetization       =     5.23 Bohr mag/cell
     absolute magnetization    =     5.46 Bohr mag/cell

     iteration #  3     ecut=    30.00 Ry     beta= 0.50
     Davidson diagonalization with overlap
     ethr =  1.19E-09,  avg # of iterations =  3.0

     total cpu time spent up to now is       91.6 secs

     total energy              =    -111.58173372 Ry
     estimated scf accuracy    <          8.5E-09 Ry

     total magnetization       =     5.23 Bohr mag/cell
     absolute magnetization    =     5.46 Bohr mag/cell

     iteration #  4     ecut=    30.00 Ry     beta= 0.50
     Davidson diagonalization with overlap
     ethr =  5.28E-11,  avg # of iterations =  2.7

     total cpu time spent up to now is       92.6 secs

     total energy              =    -111.58173372 Ry
     estimated scf accuracy    <          3.9E-09 Ry

     total magnetization       =     5.23 Bohr mag/cell
     absolute magnetization    =     5.46 Bohr mag/cell

     iteration #  5     ecut=    30.00 Ry     beta= 0.50
     Davidson diagonalization with overlap
     ethr =  2.46E-11,  avg # of iterations =  1.3

     Magnetic moment per site  (integrated on atomic sphere of radius R)
     atom   1 (R=0.381)  charge=  6.4845  magn=  2.6563
     atom   2 (R=0.381)  charge=  6.4850  magn=  2.6564

     total cpu time spent up to now is       93.5 secs

     End of self-consistent calculation

     Number of k-points >= 100: set verbosity='high' to print the bands.

     the Fermi energy is    12.7392 ev

!    total energy              =    -111.58173372 Ry
     estimated scf accuracy    <          3.1E-10 Ry
     smearing contrib. (-TS)   =       0.00021567 Ry
     internal energy E=F+TS    =    -111.58194939 Ry

     The total energy is F=E-TS. E is the sum of the following terms:
     one-electron contribution =      12.48605841 Ry
     hartree contribution      =      13.87084650 Ry
     xc contribution           =     -52.91513664 Ry
     ewald contribution        =     -85.02371765 Ry

     total magnetization       =     5.23 Bohr mag/cell
     absolute magnetization    =     5.46 Bohr mag/cell

     convergence has been achieved in   5 iterations

     Forces acting on atoms (cartesian axes, Ry/au):

     atom    1 type  1   force =     0.00000000   -0.00000047    0.00000000
     atom    2 type  1   force =    -0.00000000    0.00000047   -0.00000000

     Total force =     0.000001     Total SCF correction =     0.000000
     SCF correction compared to forces is large: reduce conv_thr to get better values


     Computing stress (Cartesian axis) and pressure

          total   stress  (Ry/bohr**3)                   (kbar)     P=       -0.13
  -0.00000089  -0.00000000  -0.00000000           -0.13       -0.00       -0.00
  -0.00000000  -0.00000093   0.00000000           -0.00       -0.14        0.00
   0.00000000   0.00000000  -0.00000089            0.00        0.00       -0.13

     Energy error            =      2.7E-07 Ry
     Gradient error          =      4.7E-07 Ry/Bohr
     Cell gradient error     =      1.4E-01 kbar

     bfgs converged in   8 scf cycles and   7 bfgs steps
     (criteria: energy <  1.0E-04 Ry, force <  1.0E-03 Ry/Bohr, cell <  5.0E-01 kbar)

     End of BFGS Geometry Optimization

     Final enthalpy           =    -111.5817337213 Ry

     File /home/bond/Work/Lab4/1A/Fe_hcp_nk_9_relax/pwscf.bfgs deleted, as requested
Begin final coordinates
     new unit-cell volume =    164.06209 a.u.^3 (    24.31149 Ang^3 )
     density =      7.62872 g/cm^3

CELL_PARAMETERS (angstrom)
   2.522301028   0.000000000   0.000000000
  -1.261150514   2.184362291   0.000000000
  -0.000000000   0.000000000   4.412554057

ATOMIC_POSITIONS (angstrom)
Fe               0.0000000000       -0.0000006489       -0.0000000000
Fe              -0.0000000000        1.4562461682        2.2062770285
End final coordinates


     Message from routine punch:
     Nothing written, as per user request (disk_io='none')

     Final scf calculation at the relaxed structure.
     The G-vectors are recalculated for the final unit cell
     Results may differ from those at the preceding step.

     Parallelization info
     --------------------
     sticks:   dense  smooth     PW     G-vecs:    dense   smooth      PW
     Min         237      93     30                 7213     1821     360
     Max         238      94     31                 7214     1826     365
     Sum         475     187     61                14427     3647     725

     Using Slab Decomposition



     bravais-lattice index     =            0
     lattice parameter (alat)  =       5.1023  a.u.
     unit-cell volume          =     164.0621 (a.u.)^3
     number of atoms/cell      =            2
     number of atomic types    =            1
     number of electrons       =        16.00
     number of Kohn-Sham states=           12
     kinetic-energy cutoff     =      30.0000  Ry
     charge density cutoff     =     300.0000  Ry
     scf convergence threshold =      1.0E-09
     mixing beta               =       0.5000
     number of iterations used =            8  plain     mixing
     press convergence thresh. =      5.0E-01
     Exchange-correlation=  SLA  PW   PBE  PBE
                           (   1   4   3   4   0   0   0)

     celldm(1)=   5.102261  celldm(2)=   0.000000  celldm(3)=   0.000000
     celldm(4)=   0.000000  celldm(5)=   0.000000  celldm(6)=   0.000000

     crystal axes: (cart. coord. in units of alat)
               a(1) = (   0.934186   0.000000   0.000000 )  
               a(2) = (  -0.467093   0.809023   0.000000 )  
               a(3) = (  -0.000000   0.000000   1.634279 )  

     reciprocal axes: (cart. coord. in units 2 pi/alat)
               b(1) = (  1.070451  0.618029 -0.000000 )  
               b(2) = ( -0.000000  1.236059 -0.000000 )  
               b(3) = (  0.000000 -0.000000  0.611891 )  


     PseudoPot. # 1 for Fe read from file:
     /home/bond/Software/QE/qe-7.4.1/pseudo/Fe.pbe-nd-rrkjus.UPF
     MD5 check sum: 398036227a04b607635f6f5e8dfd8242
     Pseudo is Ultrasoft + core correction, Zval =  8.0
     Generated by new atomic code, or converted to UPF format
     Using radial grid of  957 points,  6 beta functions with: 
                l(1) =   0
                l(2) =   0
                l(3) =   1
                l(4) =   1
                l(5) =   2
                l(6) =   2
     Q(r) pseudized with 0 coefficients 


     atomic species   valence    mass     pseudopotential
     Fe                8.00    55.84500     Fe( 1.00)

     Starting magnetic structure 
     atomic species   magnetization
     Fe              0.410

      4 Sym. Ops. (no inversion) found



   Cartesian axes

     site n.     atom                  positions (alat units)
         1        Fe     tau(   1) = (   0.0000000  -0.0000002  -0.0000000  )
         2        Fe     tau(   2) = (  -0.0000000   0.5393504   0.8171396  )

     number of k points=    75  Methfessel-Paxton smearing, width (Ry)=  0.0200
                       cart. coord. in units 2pi/alat
        k(    1) = (   0.0000000   0.0000000   0.0000000), wk =   0.0030864
        k(    2) = (   0.0000000  -0.0000000   0.1529726), wk =   0.0061728
        k(    3) = (  -0.0000000   0.0000000  -0.3059453), wk =   0.0030864
        k(    4) = (  -0.0000000   0.1373399  -0.0000000), wk =   0.0061728
        k(    5) = (  -0.0000000   0.1373399   0.1529726), wk =   0.0123457
        k(    6) = (  -0.0000000   0.1373399  -0.3059453), wk =   0.0061728
        k(    7) = (  -0.0000000   0.2746797  -0.0000000), wk =   0.0061728
        k(    8) = (  -0.0000000   0.2746797   0.1529726), wk =   0.0123457
        k(    9) = (  -0.0000000   0.2746797  -0.3059453), wk =   0.0061728
        k(   10) = (  -0.0000000   0.4120196  -0.0000000), wk =   0.0061728
        k(   11) = (  -0.0000000   0.4120196   0.1529726), wk =   0.0123457
        k(   12) = (  -0.0000000   0.4120196  -0.3059453), wk =   0.0061728
        k(   13) = (  -0.0000000   0.5493594  -0.0000000), wk =   0.0061728
        k(   14) = (  -0.0000000   0.5493594   0.1529726), wk =   0.0123457
        k(   15) = (  -0.0000000   0.5493594  -0.3059453), wk =   0.0061728
        k(   16) = (   0.1189390   0.2060098  -0.0000000), wk =   0.0123457
        k(   17) = (   0.1189390   0.2060098   0.1529726), wk =   0.0246914
        k(   18) = (   0.1189390   0.2060098  -0.3059453), wk =   0.0123457
        k(   19) = (   0.1189390   0.3433496  -0.0000000), wk =   0.0123457
        k(   20) = (   0.1189390   0.3433496   0.1529726), wk =   0.0246914
        k(   21) = (   0.1189390   0.3433496  -0.3059453), wk =   0.0123457
        k(   22) = (   0.1189390   0.4806895  -0.0000000), wk =   0.0123457
        k(   23) = (   0.1189390   0.4806895   0.1529726), wk =   0.0246914
        k(   24) = (   0.1189390   0.4806895  -0.3059453), wk =   0.0123457
        k(   25) = (   0.1189390   0.6180293  -0.0000000), wk =   0.0061728
        k(   26) = (   0.1189390   0.6180293   0.1529726), wk =   0.0123457
        k(   27) = (   0.1189390   0.6180293  -0.3059453), wk =   0.0061728
        k(   28) = (   0.2378780   0.4120196  -0.0000000), wk =   0.0123457
        k(   29) = (   0.2378780   0.4120196   0.1529726), wk =   0.0246914
        k(   30) = (   0.2378780   0.4120196  -0.3059453), wk =   0.0123457
        k(   31) = (   0.2378780   0.5493594  -0.0000000), wk =   0.0123457
        k(   32) = (   0.2378780   0.5493594   0.1529726), wk =   0.0246914
        k(   33) = (   0.2378780   0.5493594  -0.3059453), wk =   0.0123457
        k(   34) = (   0.3568170   0.6180293  -0.0000000), wk =   0.0061728
        k(   35) = (   0.3568170   0.6180293   0.1529726), wk =   0.0123457
        k(   36) = (   0.3568170   0.6180293  -0.3059453), wk =   0.0061728
        k(   37) = (   0.1189390  -0.0686699   0.0000000), wk =   0.0123457
        k(   38) = (   0.1189390  -0.0686699   0.1529726), wk =   0.0246914
        k(   39) = (   0.1189390  -0.0686699  -0.3059453), wk =   0.0123457
        k(   40) = (   0.2378780  -0.1373399   0.0000000), wk =   0.0123457
        k(   41) = (   0.2378780  -0.1373399   0.1529726), wk =   0.0246914
        k(   42) = (   0.2378780  -0.1373399  -0.3059453), wk =   0.0123457
        k(   43) = (   0.3568170  -0.2060098   0.0000000), wk =   0.0123457
        k(   44) = (   0.3568170  -0.2060098   0.1529726), wk =   0.0246914
        k(   45) = (   0.3568170  -0.2060098  -0.3059453), wk =   0.0123457
        k(   46) = (   0.4757561  -0.2746797   0.0000000), wk =   0.0123457
        k(   47) = (   0.4757561  -0.2746797   0.1529726), wk =   0.0246914
        k(   48) = (   0.4757561  -0.2746797  -0.3059453), wk =   0.0123457
        k(   49) = (   0.2378780   0.0000000  -0.0000000), wk =   0.0061728
        k(   50) = (   0.2378780   0.0000000  -0.1529726), wk =   0.0123457
        k(   51) = (   0.2378780  -0.0000000   0.3059453), wk =   0.0061728
        k(   52) = (   0.2378780  -0.2746797   0.0000000), wk =   0.0123457
        k(   53) = (   0.3568170  -0.0686699   0.0000000), wk =   0.0123457
        k(   54) = (   0.2378780  -0.2746797   0.1529726), wk =   0.0246914
        k(   55) = (   0.3568170  -0.0686699  -0.1529726), wk =   0.0246914
        k(   56) = (   0.2378780  -0.2746797  -0.3059453), wk =   0.0123457
        k(   57) = (   0.3568170  -0.0686699   0.3059453), wk =   0.0123457
        k(   58) = (   0.3568170  -0.3433496   0.0000000), wk =   0.0123457
        k(   59) = (   0.4757561  -0.1373399   0.0000000), wk =   0.0123457
        k(   60) = (   0.3568170  -0.3433496   0.1529726), wk =   0.0246914
        k(   61) = (   0.4757561  -0.1373399  -0.1529726), wk =   0.0246914
        k(   62) = (   0.3568170  -0.3433496  -0.3059453), wk =   0.0123457
        k(   63) = (   0.4757561  -0.1373399   0.3059453), wk =   0.0123457
        k(   64) = (   0.4757561  -0.4120196   0.0000000), wk =   0.0123457
        k(   65) = (   0.4757561  -0.4120196   0.1529726), wk =   0.0246914
        k(   66) = (   0.4757561  -0.4120196  -0.3059453), wk =   0.0123457
        k(   67) = (   0.4757561   0.0000000  -0.0000000), wk =   0.0061728
        k(   68) = (   0.4757561   0.0000000  -0.1529726), wk =   0.0123457
        k(   69) = (   0.4757561  -0.0000000   0.3059453), wk =   0.0061728
        k(   70) = (   0.3568170  -0.4806895   0.0000000), wk =   0.0123457
        k(   71) = (   0.5946951  -0.0686699   0.0000000), wk =   0.0123457
        k(   72) = (   0.3568170  -0.4806895   0.1529726), wk =   0.0246914
        k(   73) = (   0.5946951  -0.0686699  -0.1529726), wk =   0.0246914
        k(   74) = (   0.3568170  -0.4806895  -0.3059453), wk =   0.0123457
        k(   75) = (   0.5946951  -0.0686699   0.3059453), wk =   0.0123457

     Dense  grid:    14427 G-vectors     FFT dimensions: (  27,  27,  45)

     Smooth grid:     3647 G-vectors     FFT dimensions: (  18,  18,  30)

     Estimated max dynamical RAM per process >      38.48 MB

     Estimated total dynamical RAM >      76.97 MB

     Check: negative core charge=   -0.000006
     Generating pointlists ...

     Initial potential from superposition of free atoms

     starting charge      15.9987, renormalised to      16.0000
     Starting wfcs are   12 randomized atomic wfcs

     total cpu time spent up to now is       94.4 secs

     Self-consistent Calculation

     iteration #  1     ecut=    30.00 Ry     beta= 0.50
     Davidson diagonalization with overlap
     c_bands:  1 eigenvalues not converged
     c_bands:  1 eigenvalues not converged
     c_bands:  1 eigenvalues not converged
     c_bands:  1 eigenvalues not converged
     c_bands:  1 eigenvalues not converged
     c_bands:  1 eigenvalues not converged
     c_bands:  1 eigenvalues not converged
     c_bands:  1 eigenvalues not converged
     c_bands:  1 eigenvalues not converged
     c_bands:  1 eigenvalues not converged
     c_bands:  1 eigenvalues not converged
     c_bands:  1 eigenvalues not converged
     c_bands:  1 eigenvalues not converged
     c_bands:  1 eigenvalues not converged
     c_bands:  2 eigenvalues not converged
     c_bands:  1 eigenvalues not converged
     c_bands:  1 eigenvalues not converged
     c_bands:  1 eigenvalues not converged
     c_bands:  1 eigenvalues not converged
     c_bands:  1 eigenvalues not converged
     c_bands:  1 eigenvalues not converged
     ethr =  1.00E-06,  avg # of iterations = 15.6

     total cpu time spent up to now is       97.9 secs

     total energy              =    -111.30879606 Ry
     estimated scf accuracy    <       0.71084890 Ry

     total magnetization       =     4.92 Bohr mag/cell
     absolute magnetization    =     4.92 Bohr mag/cell

     iteration #  2     ecut=    30.00 Ry     beta= 0.50
     Davidson diagonalization with overlap
     ethr =  4.44E-03,  avg # of iterations =  2.4

     total cpu time spent up to now is       98.8 secs

     total energy              =    -111.54943286 Ry
     estimated scf accuracy    <       0.15713566 Ry

     total magnetization       =     5.19 Bohr mag/cell
     absolute magnetization    =     5.22 Bohr mag/cell

     iteration #  3     ecut=    30.00 Ry     beta= 0.50
     Davidson diagonalization with overlap
     ethr =  9.82E-04,  avg # of iterations =  1.4

     total cpu time spent up to now is       99.5 secs

     total energy              =    -111.57305210 Ry
     estimated scf accuracy    <       0.01000725 Ry

     total magnetization       =     5.24 Bohr mag/cell
     absolute magnetization    =     5.28 Bohr mag/cell

     iteration #  4     ecut=    30.00 Ry     beta= 0.50
     Davidson diagonalization with overlap
     ethr =  6.25E-05,  avg # of iterations =  3.2

     total cpu time spent up to now is      100.5 secs

     total energy              =    -111.57932165 Ry
     estimated scf accuracy    <       0.00971941 Ry

     total magnetization       =     5.25 Bohr mag/cell
     absolute magnetization    =     5.39 Bohr mag/cell

     iteration #  5     ecut=    30.00 Ry     beta= 0.50
     Davidson diagonalization with overlap
     ethr =  6.07E-05,  avg # of iterations =  1.4

     total cpu time spent up to now is      101.2 secs

     total energy              =    -111.57806161 Ry
     estimated scf accuracy    <       0.03880598 Ry

     total magnetization       =     5.24 Bohr mag/cell
     absolute magnetization    =     5.40 Bohr mag/cell

     iteration #  6     ecut=    30.00 Ry     beta= 0.50
     Davidson diagonalization with overlap
     ethr =  6.07E-05,  avg # of iterations =  2.5

     total cpu time spent up to now is      102.1 secs

     total energy              =    -111.58093436 Ry
     estimated scf accuracy    <       0.00550253 Ry

     total magnetization       =     5.23 Bohr mag/cell
     absolute magnetization    =     5.45 Bohr mag/cell

     iteration #  7     ecut=    30.00 Ry     beta= 0.50
     Davidson diagonalization with overlap
     ethr =  3.44E-05,  avg # of iterations =  1.3

     total cpu time spent up to now is      102.8 secs

     total energy              =    -111.58111226 Ry
     estimated scf accuracy    <       0.00069212 Ry

     total magnetization       =     5.23 Bohr mag/cell
     absolute magnetization    =     5.45 Bohr mag/cell

     iteration #  8     ecut=    30.00 Ry     beta= 0.50
     Davidson diagonalization with overlap
     ethr =  4.33E-06,  avg # of iterations =  2.3

     total cpu time spent up to now is      103.6 secs

     total energy              =    -111.58127947 Ry
     estimated scf accuracy    <       0.00000288 Ry

     total magnetization       =     5.23 Bohr mag/cell
     absolute magnetization    =     5.46 Bohr mag/cell

     iteration #  9     ecut=    30.00 Ry     beta= 0.50
     Davidson diagonalization with overlap
     ethr =  1.80E-08,  avg # of iterations =  9.3

     total cpu time spent up to now is      105.9 secs

     total energy              =    -111.58130367 Ry
     estimated scf accuracy    <       0.00001821 Ry

     total magnetization       =     5.23 Bohr mag/cell
     absolute magnetization    =     5.46 Bohr mag/cell

     iteration # 10     ecut=    30.00 Ry     beta= 0.50
     Davidson diagonalization with overlap
     ethr =  1.80E-08,  avg # of iterations =  2.1

     total cpu time spent up to now is      106.8 secs

     total energy              =    -111.58130154 Ry
     estimated scf accuracy    <       0.00000596 Ry

     total magnetization       =     5.23 Bohr mag/cell
     absolute magnetization    =     5.46 Bohr mag/cell

     iteration # 11     ecut=    30.00 Ry     beta= 0.50
     Davidson diagonalization with overlap
     ethr =  1.80E-08,  avg # of iterations =  3.3

     total cpu time spent up to now is      107.7 secs

     total energy              =    -111.58130324 Ry
     estimated scf accuracy    <       0.00000029 Ry

     total magnetization       =     5.23 Bohr mag/cell
     absolute magnetization    =     5.46 Bohr mag/cell

     iteration # 12     ecut=    30.00 Ry     beta= 0.50
     Davidson diagonalization with overlap
     ethr =  1.79E-09,  avg # of iterations =  3.8

     total cpu time spent up to now is      108.7 secs

     total energy              =    -111.58130337 Ry
     estimated scf accuracy    <       0.00000005 Ry

     total magnetization       =     5.23 Bohr mag/cell
     absolute magnetization    =     5.46 Bohr mag/cell

     iteration # 13     ecut=    30.00 Ry     beta= 0.50
     Davidson diagonalization with overlap
     ethr =  2.93E-10,  avg # of iterations =  4.1

     total cpu time spent up to now is      109.7 secs

     total energy              =    -111.58130340 Ry
     estimated scf accuracy    <       0.00000001 Ry

     total magnetization       =     5.23 Bohr mag/cell
     absolute magnetization    =     5.46 Bohr mag/cell

     iteration # 14     ecut=    30.00 Ry     beta= 0.50
     Davidson diagonalization with overlap
     ethr =  6.36E-11,  avg # of iterations =  3.6

     Magnetic moment per site  (integrated on atomic sphere of radius R)
     atom   1 (R=0.381)  charge=  6.4844  magn=  2.6563
     atom   2 (R=0.381)  charge=  6.4838  magn=  2.6563

     total cpu time spent up to now is      110.7 secs

     End of self-consistent calculation

     Number of k-points >= 100: set verbosity='high' to print the bands.

     the Fermi energy is    12.7407 ev

!    total energy              =    -111.58130341 Ry
     estimated scf accuracy    <          1.1E-10 Ry
     smearing contrib. (-TS)   =       0.00021619 Ry
     internal energy E=F+TS    =    -111.58151960 Ry

     The total energy is F=E-TS. E is the sum of the following terms:
     one-electron contribution =      12.48685447 Ry
     hartree contribution      =      13.87156668 Ry
     xc contribution           =     -52.91622309 Ry
     ewald contribution        =     -85.02371765 Ry

     total magnetization       =     5.23 Bohr mag/cell
     absolute magnetization    =     5.46 Bohr mag/cell

     convergence has been achieved in  14 iterations

     Forces acting on atoms (cartesian axes, Ry/au):

     atom    1 type  1   force =     0.00000000   -0.00000167    0.00000000
     atom    2 type  1   force =    -0.00000000    0.00000167   -0.00000000

     Total force =     0.000002     Total SCF correction =     0.000001
     SCF correction compared to forces is large: reduce conv_thr to get better values


     Computing stress (Cartesian axis) and pressure

          total   stress  (Ry/bohr**3)                   (kbar)     P=       -1.27
  -0.00001407   0.00000000  -0.00000000           -2.07        0.00       -0.00
   0.00000000  -0.00001411   0.00000000            0.00       -2.08        0.00
  -0.00000000   0.00000000   0.00000229           -0.00        0.00        0.34

     Message from routine punch:
     Nothing written, as per user request (disk_io='none')

     init_run     :      1.35s CPU      1.66s WALL (       2 calls)
     electrons    :     91.48s CPU    103.32s WALL (       9 calls)
     update_pot   :      0.15s CPU      0.26s WALL (       7 calls)
     forces       :      0.84s CPU      0.88s WALL (       9 calls)
     stress       :      4.39s CPU      4.67s WALL (       9 calls)

     Called by init_run:
     wfcinit      :      0.63s CPU      0.76s WALL (       2 calls)
     potinit      :      0.17s CPU      0.17s WALL (       2 calls)
     hinit0       :      0.46s CPU      0.61s WALL (       2 calls)

     Called by electrons:
     c_bands      :     74.99s CPU     85.22s WALL (      85 calls)
     sum_band     :     12.95s CPU     14.47s WALL (      85 calls)
     v_of_rho     :      1.53s CPU      1.65s WALL (      93 calls)
     newd         :      2.16s CPU      2.23s WALL (      93 calls)
     mix_rho      :      0.11s CPU      0.12s WALL (      85 calls)

     Called by c_bands:
     init_us_2    :      1.70s CPU      1.93s WALL (   28500 calls)
     cegterg      :     70.06s CPU     79.65s WALL (   12750 calls)

     Called by *egterg:
     cdiaghg      :      6.23s CPU      7.07s WALL (   52569 calls)
     h_psi        :     56.94s CPU     64.79s WALL (   54069 calls)
     s_psi        :      1.12s CPU      1.28s WALL (   54069 calls)
     g_psi        :      0.32s CPU      0.37s WALL (   41019 calls)

     Called by h_psi:
     h_psi:calbec :      2.07s CPU      2.34s WALL (   54069 calls)
     vloc_psi     :     53.26s CPU     60.63s WALL (   54069 calls)
     add_vuspsi   :      1.20s CPU      1.38s WALL (   54069 calls)

     General routines
     calbec       :      3.34s CPU      3.75s WALL (   89769 calls)
     fft          :      0.82s CPU      0.92s WALL (    2676 calls)
     ffts         :      0.14s CPU      0.14s WALL (     356 calls)
     fftw         :     53.85s CPU     61.41s WALL ( 1074632 calls)
     interpolate  :      0.18s CPU      0.20s WALL (     186 calls)

     Parallel routines

     PWSCF        :   1m38.54s CPU   1m51.21s WALL


   This run was terminated on:  17:57:34  20Oct2025            

=------------------------------------------------------------------------------=
   JOB DONE.
=------------------------------------------------------------------------------=
