
     Program PWSCF v.7.4.1 starts on 21Oct2025 at  1:37:31 

     This program is part of the open-source Quantum ESPRESSO suite
     for quantum simulation of materials; please cite
         "P. Giannozzi et al., J. Phys.:Condens. Matter 21 395502 (2009);
         "P. Giannozzi et al., J. Phys.:Condens. Matter 29 465901 (2017);
         "P. Giannozzi et al., J. Chem. Phys. 152 154105 (2020);
          URL http://www.quantum-espresso.org", 
     in publications or presentations arising from this work. More details at
     http://www.quantum-espresso.org/quote

     Parallel version (MPI), running on     2 processors

     MPI processes distributed on     1 nodes
     246 MiB available memory on the printing compute node when the environment starts

     Waiting for input...
     Reading input from standard input
Warning: card &CELL ignored
Warning: card / ignored

     Current dimensions of program PWSCF are:
     Max number of different atomic species (ntypx) = 10
     Max number of k-points (npk) =  40000
     Max angular momentum in pseudopotentials (lmaxx) =  4
     file O.pz-rrkjus.UPF: wavefunction(s)  2S renormalized
     Message from routine setup:
     using ibrav=0 with symmetry is DISCOURAGED, use correct ibrav instead

     R & G space division:  proc/nbgrp/npool/nimage =       2
     Subspace diagonalization in iterative solution of the eigenvalue problem:
     a serial algorithm will be used


     Parallelization info
     --------------------
     sticks:   dense  smooth     PW     G-vecs:    dense   smooth      PW
     Min         498     248     72                11851     4192     682
     Max         499     249     73                11852     4193     683
     Sum         997     497    145                23703     8385    1365

     Using Slab Decomposition



     bravais-lattice index     =            0
     lattice parameter (alat)  =       7.2282  a.u.
     unit-cell volume          =     377.6512 (a.u.)^3
     number of atoms/cell      =            5
     number of atomic types    =            3
     number of electrons       =        44.00
     number of Kohn-Sham states=           22
     kinetic-energy cutoff     =      30.0000  Ry
     charge density cutoff     =     240.0000  Ry
     scf convergence threshold =      1.0E-07
     mixing beta               =       0.7000
     number of iterations used =            8  plain     mixing
     Exchange-correlation= SLA  PZ   NOGX NOGC
                           (   1   1   0   0   0   0   0)

     celldm(1)=   7.228202  celldm(2)=   0.000000  celldm(3)=   0.000000
     celldm(4)=   0.000000  celldm(5)=   0.000000  celldm(6)=   0.000000

     crystal axes: (cart. coord. in units of alat)
               a(1) = (   1.000000   0.000000   0.000000 )  
               a(2) = (   0.000000   1.000000   0.000000 )  
               a(3) = (   0.000000   0.000000   1.000000 )  

     reciprocal axes: (cart. coord. in units 2 pi/alat)
               b(1) = (  1.000000  0.000000  0.000000 )  
               b(2) = (  0.000000  1.000000  0.000000 )  
               b(3) = (  0.000000  0.000000  1.000000 )  


     PseudoPot. # 1 for O  read from file:
     /home/bond/Software/QE/qe-7.4.1/pseudo/O.pz-rrkjus.UPF
     MD5 check sum: 24fb942a68ef5d262e498166c462ef4a
     Pseudo is Ultrasoft, Zval =  6.0
     Generated by new atomic code, or converted to UPF format
     Using radial grid of 1269 points,  4 beta functions with: 
                l(1) =   0
                l(2) =   0
                l(3) =   1
                l(4) =   1
     Q(r) pseudized with 0 coefficients 


     PseudoPot. # 2 for Pb read from file:
     /home/bond/Software/QE/qe-7.4.1/pseudo/Pb.pz-d-van.UPF
     MD5 check sum: 4e1e5920686a026ae26139ac417581ff
     Pseudo is Ultrasoft, Zval = 14.0
     Generated by new atomic code, or converted to UPF format
     Using radial grid of  899 points,  6 beta functions with: 
                l(1) =   0
                l(2) =   0
                l(3) =   1
                l(4) =   1
                l(5) =   2
                l(6) =   2
     Q(r) pseudized with  8 coefficients,  rinner =    1.000   1.000   1.000
                                                       1.000   1.000

     PseudoPot. # 3 for Ti read from file:
     /home/bond/Software/QE/qe-7.4.1/pseudo/Ti.pz-sp-van_ak.UPF
     MD5 check sum: 545d0e6e05332b8871a8093f427cb0ca
     Pseudo is Ultrasoft, Zval = 12.0
     Generated by new atomic code, or converted to UPF format
     Using radial grid of  851 points,  6 beta functions with: 
                l(1) =   0
                l(2) =   0
                l(3) =   1
                l(4) =   1
                l(5) =   2
                l(6) =   2
     Q(r) pseudized with  8 coefficients,  rinner =    1.000   1.000   1.000
                                                       1.000   1.000

     atomic species   valence    mass     pseudopotential
     O                 6.00    15.99900     O ( 1.00)
     Pb               14.00   207.20000     Pb( 1.00)
     Ti               12.00    47.86700     Ti( 1.00)

     48 Sym. Ops., with inversion, found



   Cartesian axes

     site n.     atom                  positions (alat units)
         1        Pb     tau(   1) = (   0.0000000   0.0000000   0.0000000  )
         2        Ti     tau(   2) = (   0.5000000   0.5000000   0.5000000  )
         3        O      tau(   3) = (   0.0000000   0.5000000   0.5000000  )
         4        O      tau(   4) = (   0.5000000   0.0000000   0.5000000  )
         5        O      tau(   5) = (   0.5000000   0.5000000   0.0000000  )

     number of k points=     4
                       cart. coord. in units 2pi/alat
        k(    1) = (   0.1250000   0.1250000   0.1250000), wk =   0.2500000
        k(    2) = (   0.1250000   0.1250000   0.3750000), wk =   0.7500000
        k(    3) = (   0.1250000   0.3750000   0.3750000), wk =   0.7500000
        k(    4) = (   0.3750000   0.3750000   0.3750000), wk =   0.2500000

     Dense  grid:    23703 G-vectors     FFT dimensions: (  36,  36,  36)

     Smooth grid:     8385 G-vectors     FFT dimensions: (  25,  25,  25)

     Estimated max dynamical RAM per process >      48.64 MB

     Estimated total dynamical RAM >      97.27 MB

     Initial potential from superposition of free atoms

     starting charge      42.9982, renormalised to      44.0000
     Starting wfcs are   31 randomized atomic wfcs

     total cpu time spent up to now is        1.6 secs

     Self-consistent Calculation

     iteration #  1     ecut=    30.00 Ry     beta= 0.70
     Davidson diagonalization with overlap
     ethr =  1.00E-02,  avg # of iterations =  2.0

     total cpu time spent up to now is        1.9 secs

     total energy              =    -332.62246745 Ry
     estimated scf accuracy    <       1.09121414 Ry

     iteration #  2     ecut=    30.00 Ry     beta= 0.70
     Davidson diagonalization with overlap
     ethr =  2.48E-03,  avg # of iterations =  6.8

     total cpu time spent up to now is        2.3 secs

     total energy              =    -332.48381151 Ry
     estimated scf accuracy    <       3.49112419 Ry

     iteration #  3     ecut=    30.00 Ry     beta= 0.70
     Davidson diagonalization with overlap
     ethr =  2.48E-03,  avg # of iterations =  5.5

     total cpu time spent up to now is        2.6 secs

     total energy              =    -333.15747608 Ry
     estimated scf accuracy    <       0.18621514 Ry

     iteration #  4     ecut=    30.00 Ry     beta= 0.70
     Davidson diagonalization with overlap
     ethr =  4.23E-04,  avg # of iterations =  3.0

     total cpu time spent up to now is        3.0 secs

     total energy              =    -333.15884537 Ry
     estimated scf accuracy    <       0.04202296 Ry

     iteration #  5     ecut=    30.00 Ry     beta= 0.70
     Davidson diagonalization with overlap
     ethr =  9.55E-05,  avg # of iterations =  5.5

     total cpu time spent up to now is        3.3 secs

     total energy              =    -333.17801709 Ry
     estimated scf accuracy    <       0.01936939 Ry

     iteration #  6     ecut=    30.00 Ry     beta= 0.70
     Davidson diagonalization with overlap
     ethr =  4.40E-05,  avg # of iterations =  3.0

     total cpu time spent up to now is        3.5 secs

     total energy              =    -333.17780163 Ry
     estimated scf accuracy    <       0.00492660 Ry

     iteration #  7     ecut=    30.00 Ry     beta= 0.70
     Davidson diagonalization with overlap
     ethr =  1.12E-05,  avg # of iterations =  4.2

     total cpu time spent up to now is        3.8 secs

     total energy              =    -333.17975177 Ry
     estimated scf accuracy    <       0.00057437 Ry

     iteration #  8     ecut=    30.00 Ry     beta= 0.70
     Davidson diagonalization with overlap
     ethr =  1.31E-06,  avg # of iterations =  1.5

     total cpu time spent up to now is        4.1 secs

     total energy              =    -333.17965087 Ry
     estimated scf accuracy    <       0.00035964 Ry

     iteration #  9     ecut=    30.00 Ry     beta= 0.70
     Davidson diagonalization with overlap
     ethr =  8.17E-07,  avg # of iterations =  3.5

     total cpu time spent up to now is        4.4 secs

     total energy              =    -333.17970913 Ry
     estimated scf accuracy    <       0.00001043 Ry

     iteration # 10     ecut=    30.00 Ry     beta= 0.70
     Davidson diagonalization with overlap
     ethr =  2.37E-08,  avg # of iterations =  6.2

     total cpu time spent up to now is        4.9 secs

     total energy              =    -333.17971670 Ry
     estimated scf accuracy    <       0.00001827 Ry

     iteration # 11     ecut=    30.00 Ry     beta= 0.70
     Davidson diagonalization with overlap
     ethr =  2.37E-08,  avg # of iterations =  3.5

     total cpu time spent up to now is        5.3 secs

     total energy              =    -333.17971723 Ry
     estimated scf accuracy    <       0.00000214 Ry

     iteration # 12     ecut=    30.00 Ry     beta= 0.70
     Davidson diagonalization with overlap
     ethr =  4.87E-09,  avg # of iterations =  5.0

     total cpu time spent up to now is        5.6 secs

     total energy              =    -333.17971853 Ry
     estimated scf accuracy    <       0.00000130 Ry

     iteration # 13     ecut=    30.00 Ry     beta= 0.70
     Davidson diagonalization with overlap
     ethr =  2.95E-09,  avg # of iterations =  1.0

     total cpu time spent up to now is        5.9 secs

     total energy              =    -333.17971828 Ry
     estimated scf accuracy    <       0.00000086 Ry

     iteration # 14     ecut=    30.00 Ry     beta= 0.70
     Davidson diagonalization with overlap
     ethr =  1.95E-09,  avg # of iterations =  3.5

     total cpu time spent up to now is        6.2 secs

     End of self-consistent calculation

          k = 0.1250 0.1250 0.1250 (  1051 PWs)   bands (ev):

   -43.8519 -20.4987 -20.4970 -20.4970  -5.8714  -4.7219  -4.7219  -3.2257
    -3.2257  -3.2098  -3.0376  -3.0376   5.3058   7.8347   7.8347   8.7598
     9.7186   9.7186  10.4761  10.5998  10.5998  10.7735

          k = 0.1250 0.1250 0.3750 (  1055 PWs)   bands (ev):

   -43.8503 -20.5675 -20.4950 -20.4946  -5.4284  -4.5945  -4.5112  -3.2975
    -3.2214  -3.2088  -3.1435  -2.9965   4.5013   7.3769   7.8223   8.4209
     9.0629   9.3039  10.0294  10.5373  10.7395  11.6293

          k = 0.1250 0.3750 0.3750 (  1046 PWs)   bands (ev):

   -43.8487 -20.5638 -20.5627 -20.4916  -5.1932  -4.4242  -4.3456  -3.2672
    -3.2182  -3.1629  -3.0616  -2.9068   4.0694   7.3358   7.3769   7.6763
     7.9969   9.3191  10.0633  10.0761  10.7773  11.3638

          k = 0.3750 0.3750 0.3750 (  1040 PWs)   bands (ev):

   -43.8472 -20.5599 -20.5597 -20.5597  -4.7340  -4.5467  -4.5467  -3.1632
    -3.1632  -2.8612  -2.7899  -2.7899   4.7008   6.3599   6.3599   7.3102
     7.5486   7.5486   8.6558  11.3199  11.3199  11.3898

     highest occupied level (ev):    11.6293

!    total energy              =    -333.17971839 Ry
     estimated scf accuracy    <       0.00000003 Ry

     The total energy is the sum of the following terms:
     one-electron contribution =     -71.23455978 Ry
     hartree contribution      =      64.74499724 Ry
     xc contribution           =     -49.80001122 Ry
     ewald contribution        =    -276.89014463 Ry

     convergence has been achieved in  14 iterations

     Forces acting on atoms (cartesian axes, Ry/au):

     atom    1 type  2   force =     0.00000000    0.00000000    0.00000000
     atom    2 type  3   force =     0.00000000    0.00000000    0.00000000
     atom    3 type  1   force =     0.00000000    0.00000000    0.00000000
     atom    4 type  1   force =     0.00000000    0.00000000    0.00000000
     atom    5 type  1   force =     0.00000000    0.00000000    0.00000000

     Total force =     0.000000     Total SCF correction =     0.000000


     Computing stress (Cartesian axis) and pressure

          total   stress  (Ry/bohr**3)                   (kbar)     P=       72.45
   0.00049253   0.00000000   0.00000000           72.45        0.00        0.00
   0.00000000   0.00049253   0.00000000            0.00       72.45        0.00
   0.00000000   0.00000000   0.00049253            0.00        0.00       72.45

     Message from routine punch:
     Nothing written, as per user request (disk_io='none')

     init_run     :      1.13s CPU      1.18s WALL (       1 calls)
     electrons    :      4.37s CPU      4.56s WALL (       1 calls)
     forces       :      0.12s CPU      0.12s WALL (       1 calls)
     stress       :      1.09s CPU      1.09s WALL (       1 calls)

     Called by init_run:
     wfcinit      :      0.05s CPU      0.05s WALL (       1 calls)
     potinit      :      0.08s CPU      0.08s WALL (       1 calls)
     hinit0       :      0.78s CPU      0.79s WALL (       1 calls)

     Called by electrons:
     c_bands      :      1.38s CPU      1.53s WALL (      14 calls)
     sum_band     :      1.63s CPU      1.66s WALL (      14 calls)
     v_of_rho     :      0.04s CPU      0.04s WALL (      15 calls)
     newd         :      1.39s CPU      1.44s WALL (      15 calls)
     mix_rho      :      0.03s CPU      0.03s WALL (      14 calls)

     Called by c_bands:
     init_us_2    :      0.05s CPU      0.05s WALL (     124 calls)
     cegterg      :      1.28s CPU      1.42s WALL (      56 calls)

     Called by *egterg:
     cdiaghg      :      0.17s CPU      0.18s WALL (     273 calls)
     h_psi        :      0.91s CPU      1.02s WALL (     277 calls)
     s_psi        :      0.04s CPU      0.05s WALL (     277 calls)
     g_psi        :      0.01s CPU      0.01s WALL (     217 calls)

     Called by h_psi:
     h_psi:calbec :      0.07s CPU      0.08s WALL (     277 calls)
     vloc_psi     :      0.79s CPU      0.88s WALL (     277 calls)
     add_vuspsi   :      0.04s CPU      0.05s WALL (     277 calls)

     General routines
     calbec       :      0.11s CPU      0.12s WALL (     401 calls)
     fft          :      0.25s CPU      0.25s WALL (      93 calls)
     ffts         :      0.05s CPU      0.05s WALL (      29 calls)
     fftw         :      0.76s CPU      0.84s WALL (    8360 calls)
     interpolate  :      0.05s CPU      0.05s WALL (      15 calls)

     Parallel routines

     PWSCF        :      7.14s CPU      7.40s WALL


   This run was terminated on:   1:37:39  21Oct2025            

=------------------------------------------------------------------------------=
   JOB DONE.
=------------------------------------------------------------------------------=
