
     Program PWSCF v.7.4.1 starts on 21Oct2025 at  1:39:34 

     This program is part of the open-source Quantum ESPRESSO suite
     for quantum simulation of materials; please cite
         "P. Giannozzi et al., J. Phys.:Condens. Matter 21 395502 (2009);
         "P. Giannozzi et al., J. Phys.:Condens. Matter 29 465901 (2017);
         "P. Giannozzi et al., J. Chem. Phys. 152 154105 (2020);
          URL http://www.quantum-espresso.org", 
     in publications or presentations arising from this work. More details at
     http://www.quantum-espresso.org/quote

     Parallel version (MPI), running on     2 processors

     MPI processes distributed on     1 nodes
     313 MiB available memory on the printing compute node when the environment starts

     Waiting for input...
     Reading input from standard input
Warning: card &CELL ignored
Warning: card / ignored

     Current dimensions of program PWSCF are:
     Max number of different atomic species (ntypx) = 10
     Max number of k-points (npk) =  40000
     Max angular momentum in pseudopotentials (lmaxx) =  4
     file O.pz-rrkjus.UPF: wavefunction(s)  2S renormalized
     Message from routine setup:
     using ibrav=0 with symmetry is DISCOURAGED, use correct ibrav instead

     R & G space division:  proc/nbgrp/npool/nimage =       2
     Subspace diagonalization in iterative solution of the eigenvalue problem:
     a serial algorithm will be used


     Parallelization info
     --------------------
     sticks:   dense  smooth     PW     G-vecs:    dense   smooth      PW
     Min         524     258     80                12838     4522     751
     Max         525     259     81                12839     4523     752
     Sum        1049     517    161                25677     9045    1503

     Using Slab Decomposition



     bravais-lattice index     =            0
     lattice parameter (alat)  =       7.4329  a.u.
     unit-cell volume          =     410.6566 (a.u.)^3
     number of atoms/cell      =            5
     number of atomic types    =            3
     number of electrons       =        44.00
     number of Kohn-Sham states=           22
     kinetic-energy cutoff     =      30.0000  Ry
     charge density cutoff     =     240.0000  Ry
     scf convergence threshold =      1.0E-07
     mixing beta               =       0.7000
     number of iterations used =            8  plain     mixing
     Exchange-correlation= SLA  PZ   NOGX NOGC
                           (   1   1   0   0   0   0   0)

     celldm(1)=   7.432923  celldm(2)=   0.000000  celldm(3)=   0.000000
     celldm(4)=   0.000000  celldm(5)=   0.000000  celldm(6)=   0.000000

     crystal axes: (cart. coord. in units of alat)
               a(1) = (   1.000000   0.000000   0.000000 )  
               a(2) = (   0.000000   1.000000   0.000000 )  
               a(3) = (   0.000000   0.000000   1.000000 )  

     reciprocal axes: (cart. coord. in units 2 pi/alat)
               b(1) = (  1.000000  0.000000  0.000000 )  
               b(2) = (  0.000000  1.000000  0.000000 )  
               b(3) = (  0.000000  0.000000  1.000000 )  


     PseudoPot. # 1 for O  read from file:
     /home/bond/Software/QE/qe-7.4.1/pseudo/O.pz-rrkjus.UPF
     MD5 check sum: 24fb942a68ef5d262e498166c462ef4a
     Pseudo is Ultrasoft, Zval =  6.0
     Generated by new atomic code, or converted to UPF format
     Using radial grid of 1269 points,  4 beta functions with: 
                l(1) =   0
                l(2) =   0
                l(3) =   1
                l(4) =   1
     Q(r) pseudized with 0 coefficients 


     PseudoPot. # 2 for Pb read from file:
     /home/bond/Software/QE/qe-7.4.1/pseudo/Pb.pz-d-van.UPF
     MD5 check sum: 4e1e5920686a026ae26139ac417581ff
     Pseudo is Ultrasoft, Zval = 14.0
     Generated by new atomic code, or converted to UPF format
     Using radial grid of  899 points,  6 beta functions with: 
                l(1) =   0
                l(2) =   0
                l(3) =   1
                l(4) =   1
                l(5) =   2
                l(6) =   2
     Q(r) pseudized with  8 coefficients,  rinner =    1.000   1.000   1.000
                                                       1.000   1.000

     PseudoPot. # 3 for Ti read from file:
     /home/bond/Software/QE/qe-7.4.1/pseudo/Ti.pz-sp-van_ak.UPF
     MD5 check sum: 545d0e6e05332b8871a8093f427cb0ca
     Pseudo is Ultrasoft, Zval = 12.0
     Generated by new atomic code, or converted to UPF format
     Using radial grid of  851 points,  6 beta functions with: 
                l(1) =   0
                l(2) =   0
                l(3) =   1
                l(4) =   1
                l(5) =   2
                l(6) =   2
     Q(r) pseudized with  8 coefficients,  rinner =    1.000   1.000   1.000
                                                       1.000   1.000

     atomic species   valence    mass     pseudopotential
     O                 6.00    15.99900     O ( 1.00)
     Pb               14.00   207.20000     Pb( 1.00)
     Ti               12.00    47.86700     Ti( 1.00)

     48 Sym. Ops., with inversion, found



   Cartesian axes

     site n.     atom                  positions (alat units)
         1        Pb     tau(   1) = (   0.0000000   0.0000000   0.0000000  )
         2        Ti     tau(   2) = (   0.5000008   0.5000008   0.5000008  )
         3        O      tau(   3) = (   0.0000000   0.5000008   0.5000008  )
         4        O      tau(   4) = (   0.5000008   0.0000000   0.5000008  )
         5        O      tau(   5) = (   0.5000008   0.5000008   0.0000000  )

     number of k points=     4
                       cart. coord. in units 2pi/alat
        k(    1) = (   0.1250000   0.1250000   0.1250000), wk =   0.2500000
        k(    2) = (   0.1250000   0.1250000   0.3750000), wk =   0.7500000
        k(    3) = (   0.1250000   0.3750000   0.3750000), wk =   0.7500000
        k(    4) = (   0.3750000   0.3750000   0.3750000), wk =   0.2500000

     Dense  grid:    25677 G-vectors     FFT dimensions: (  40,  40,  40)

     Smooth grid:     9045 G-vectors     FFT dimensions: (  25,  25,  25)

     Estimated max dynamical RAM per process >      52.84 MB

     Estimated total dynamical RAM >     105.68 MB

     Initial potential from superposition of free atoms

     starting charge      42.9982, renormalised to      44.0000
     Starting wfcs are   31 randomized atomic wfcs

     total cpu time spent up to now is        1.7 secs

     Self-consistent Calculation

     iteration #  1     ecut=    30.00 Ry     beta= 0.70
     Davidson diagonalization with overlap
     ethr =  1.00E-02,  avg # of iterations =  2.0

     total cpu time spent up to now is        2.1 secs

     total energy              =    -332.59101976 Ry
     estimated scf accuracy    <       1.12226449 Ry

     iteration #  2     ecut=    30.00 Ry     beta= 0.70
     Davidson diagonalization with overlap
     ethr =  2.55E-03,  avg # of iterations =  7.8

     total cpu time spent up to now is        2.5 secs

     total energy              =    -332.03042890 Ry
     estimated scf accuracy    <       6.42668215 Ry

     iteration #  3     ecut=    30.00 Ry     beta= 0.70
     Davidson diagonalization with overlap
     ethr =  2.55E-03,  avg # of iterations =  6.8

     total cpu time spent up to now is        2.9 secs

     total energy              =    -333.15139214 Ry
     estimated scf accuracy    <       0.30399861 Ry

     iteration #  4     ecut=    30.00 Ry     beta= 0.70
     Davidson diagonalization with overlap
     ethr =  6.91E-04,  avg # of iterations =  2.8

     total cpu time spent up to now is        3.3 secs

     total energy              =    -333.14791152 Ry
     estimated scf accuracy    <       0.09450691 Ry

     iteration #  5     ecut=    30.00 Ry     beta= 0.70
     Davidson diagonalization with overlap
     ethr =  2.15E-04,  avg # of iterations =  4.8

     total cpu time spent up to now is        3.6 secs

     total energy              =    -333.17895865 Ry
     estimated scf accuracy    <       0.00735815 Ry

     iteration #  6     ecut=    30.00 Ry     beta= 0.70
     Davidson diagonalization with overlap
     ethr =  1.67E-05,  avg # of iterations =  3.8

     total cpu time spent up to now is        4.0 secs

     total energy              =    -333.17891031 Ry
     estimated scf accuracy    <       0.00333993 Ry

     iteration #  7     ecut=    30.00 Ry     beta= 0.70
     Davidson diagonalization with overlap
     ethr =  7.59E-06,  avg # of iterations =  4.8

     total cpu time spent up to now is        4.4 secs

     total energy              =    -333.17976870 Ry
     estimated scf accuracy    <       0.00005227 Ry

     iteration #  8     ecut=    30.00 Ry     beta= 0.70
     Davidson diagonalization with overlap
     ethr =  1.19E-07,  avg # of iterations =  4.8

     total cpu time spent up to now is        4.7 secs

     total energy              =    -333.17978603 Ry
     estimated scf accuracy    <       0.00012282 Ry

     iteration #  9     ecut=    30.00 Ry     beta= 0.70
     Davidson diagonalization with overlap
     ethr =  1.19E-07,  avg # of iterations =  3.5

     total cpu time spent up to now is        5.1 secs

     total energy              =    -333.17977932 Ry
     estimated scf accuracy    <       0.00004041 Ry

     iteration # 10     ecut=    30.00 Ry     beta= 0.70
     Davidson diagonalization with overlap
     ethr =  9.18E-08,  avg # of iterations =  4.5

     total cpu time spent up to now is        5.4 secs

     total energy              =    -333.17978992 Ry
     estimated scf accuracy    <       0.00000130 Ry

     iteration # 11     ecut=    30.00 Ry     beta= 0.70
     Davidson diagonalization with overlap
     ethr =  2.95E-09,  avg # of iterations =  3.0

     total cpu time spent up to now is        5.8 secs

     total energy              =    -333.17979019 Ry
     estimated scf accuracy    <       0.00000080 Ry

     iteration # 12     ecut=    30.00 Ry     beta= 0.70
     Davidson diagonalization with overlap
     ethr =  1.82E-09,  avg # of iterations =  1.0

     total cpu time spent up to now is        6.1 secs

     total energy              =    -333.17979006 Ry
     estimated scf accuracy    <       0.00000102 Ry

     iteration # 13     ecut=    30.00 Ry     beta= 0.70
     Davidson diagonalization with overlap
     ethr =  1.82E-09,  avg # of iterations =  1.0

     total cpu time spent up to now is        6.4 secs

     total energy              =    -333.17979000 Ry
     estimated scf accuracy    <       0.00000071 Ry

     iteration # 14     ecut=    30.00 Ry     beta= 0.70
     Davidson diagonalization with overlap
     ethr =  1.62E-09,  avg # of iterations =  1.8

     total cpu time spent up to now is        6.8 secs

     total energy              =    -333.17979002 Ry
     estimated scf accuracy    <       0.00000041 Ry

     iteration # 15     ecut=    30.00 Ry     beta= 0.70
     Davidson diagonalization with overlap
     ethr =  9.26E-10,  avg # of iterations =  1.0

     total cpu time spent up to now is        7.1 secs

     total energy              =    -333.17978991 Ry
     estimated scf accuracy    <       0.00000041 Ry

     iteration # 16     ecut=    30.00 Ry     beta= 0.70
     Davidson diagonalization with overlap
     ethr =  9.26E-10,  avg # of iterations =  4.5

     total cpu time spent up to now is        7.4 secs

     End of self-consistent calculation

          k = 0.1250 0.1250 0.1250 (  1135 PWs)   bands (ev):

   -45.5543 -22.1227 -22.1227 -22.1227  -6.8305  -5.8401  -5.8401  -4.7628
    -4.7628  -4.7509  -4.5839  -4.5839   3.9540   6.7427   6.7427   7.3779
     8.5349   8.5349   9.2808   9.3023   9.3023   9.3939

          k = 0.1250 0.1250 0.3750 (  1148 PWs)   bands (ev):

   -45.5535 -22.1691 -22.1216 -22.1211  -6.4563  -5.7264  -5.7009  -4.8146
    -4.7580  -4.7448  -4.6767  -4.5624   3.2987   6.2628   6.8233   7.2450
     7.8081   8.1527   8.7168   9.3220   9.4492  10.0652

          k = 0.1250 0.3750 0.3750 (  1136 PWs)   bands (ev):

   -45.5524 -22.1666 -22.1664 -22.1192  -6.2646  -5.6313  -5.5709  -4.7917
    -4.7532  -4.6985  -4.6195  -4.4742   2.9920   6.2099   6.3037   6.6673
     6.9637   7.9956   8.7827   8.8671   9.2832  10.0572

          k = 0.3750 0.3750 0.3750 (  1124 PWs)   bands (ev):

   -45.5514 -22.1650 -22.1640 -22.1640  -5.9181  -5.7629  -5.7629  -4.7177
    -4.7177  -4.4359  -4.3713  -4.3713   3.5901   5.5099   5.5099   6.0862
     6.4725   6.4725   7.2829  10.0104  10.0104  10.0908

     highest occupied level (ev):    10.0908

!    total energy              =    -333.17978992 Ry
     estimated scf accuracy    <       0.00000004 Ry

     The total energy is the sum of the following terms:
     one-electron contribution =     -82.33223646 Ry
     hartree contribution      =      67.89672831 Ry
     xc contribution           =     -49.48034875 Ry
     ewald contribution        =    -269.26393302 Ry

     convergence has been achieved in  16 iterations

     Forces acting on atoms (cartesian axes, Ry/au):

     atom    1 type  2   force =     0.00000000    0.00000000    0.00000000
     atom    2 type  3   force =     0.00000000    0.00000000    0.00000000
     atom    3 type  1   force =     0.00000000    0.00000000    0.00000000
     atom    4 type  1   force =     0.00000000    0.00000000    0.00000000
     atom    5 type  1   force =     0.00000000    0.00000000    0.00000000

     Total force =     0.000000     Total SCF correction =     0.000000


     Computing stress (Cartesian axis) and pressure

          total   stress  (Ry/bohr**3)                   (kbar)     P=      -98.93
  -0.00067250   0.00000000   0.00000000          -98.93        0.00        0.00
   0.00000000  -0.00067250   0.00000000            0.00      -98.93        0.00
   0.00000000   0.00000000  -0.00067250            0.00        0.00      -98.93

     Message from routine punch:
     Nothing written, as per user request (disk_io='none')

     init_run     :      0.95s CPU      1.01s WALL (       1 calls)
     electrons    :      4.87s CPU      5.67s WALL (       1 calls)
     forces       :      0.12s CPU      0.15s WALL (       1 calls)
     stress       :      1.17s CPU      1.24s WALL (       1 calls)

     Called by init_run:
     wfcinit      :      0.04s CPU      0.06s WALL (       1 calls)
     potinit      :      0.08s CPU      0.09s WALL (       1 calls)
     hinit0       :      0.65s CPU      0.65s WALL (       1 calls)

     Called by electrons:
     c_bands      :      1.53s CPU      1.62s WALL (      16 calls)
     sum_band     :      1.82s CPU      2.19s WALL (      16 calls)
     v_of_rho     :      0.05s CPU      0.05s WALL (      17 calls)
     newd         :      1.52s CPU      1.88s WALL (      17 calls)
     mix_rho      :      0.03s CPU      0.04s WALL (      16 calls)

     Called by c_bands:
     init_us_2    :      0.05s CPU      0.06s WALL (     140 calls)
     cegterg      :      1.42s CPU      1.49s WALL (      64 calls)

     Called by *egterg:
     cdiaghg      :      0.18s CPU      0.19s WALL (     294 calls)
     h_psi        :      1.00s CPU      1.09s WALL (     298 calls)
     s_psi        :      0.05s CPU      0.05s WALL (     298 calls)
     g_psi        :      0.01s CPU      0.01s WALL (     230 calls)

     Called by h_psi:
     h_psi:calbec :      0.08s CPU      0.09s WALL (     298 calls)
     vloc_psi     :      0.87s CPU      0.94s WALL (     298 calls)
     add_vuspsi   :      0.05s CPU      0.05s WALL (     298 calls)

     General routines
     calbec       :      0.12s CPU      0.13s WALL (     430 calls)
     fft          :      0.28s CPU      0.28s WALL (     105 calls)
     ffts         :      0.05s CPU      0.05s WALL (      33 calls)
     fftw         :      0.82s CPU      0.88s WALL (    9050 calls)
     interpolate  :      0.06s CPU      0.06s WALL (      17 calls)

     Parallel routines

     PWSCF        :      7.77s CPU      8.81s WALL


   This run was terminated on:   1:39:43  21Oct2025            

=------------------------------------------------------------------------------=
   JOB DONE.
=------------------------------------------------------------------------------=
