LAMMPS (22 Jul 2025 - Update 1)
Reading data file ...
  orthogonal box = (0 0 0) to (12.367569 8.7451919 14)
  1 by 1 by 1 MPI processor grid
  reading atoms ...
  9 atoms
  read_data CPU = 0.001 seconds
WARNING: No fixes with time integration, atoms won't move
For more information see https://docs.lammps.org/err0028 (../verlet.cpp:60)
Generated 0 of 0 mixed pair_coeff terms from geometric mixing rule
Neighbor list info ...
  update: every = 1 steps, delay = 0 steps, check = yes
  max neighbors/atom: 2000, page size: 100000
  master list distance cutoff = 6.5
  ghost atom cutoff = 6.5
  binsize = 3.25, bins = 4 3 5
  1 neighbor lists, perpetual/occasional/extra = 1 0 0
  (1) pair lj/cut, perpetual
      attributes: half, newton on
      pair build: half/bin/atomonly/newton
      stencil: half/bin/3d
      bin: standard
Setting up Verlet run ...
  Unit style    : metal
  Current step  : 0
  Time step     : 0.001
Per MPI rank memory allocation (min/avg/max) = 3.052 | 3.052 | 3.052 Mbytes
   Step         PotEng           Lx             Ly             Lz           Press           Pxx            Pyy            Pzz      
         0  -4.3862023      12.367569      8.7451919      14            -854.22982     -5125.3789      2562.6895      0            
Loop time of 1.833e-06 on 1 procs for 0 steps with 9 atoms

109.1% CPU use with 1 MPI tasks x no OpenMP threads

MPI task timing breakdown:
Section |  min time  |  avg time  |  max time  |%varavg| %total
---------------------------------------------------------------
Pair    | 0          | 0          | 0          |   0.0 |  0.00
Neigh   | 0          | 0          | 0          |   0.0 |  0.00
Comm    | 0          | 0          | 0          |   0.0 |  0.00
Output  | 0          | 0          | 0          |   0.0 |  0.00
Modify  | 0          | 0          | 0          |   0.0 |  0.00
Other   |            | 1.833e-06  |            |       |100.00

Nlocal:              9 ave           9 max           9 min
Histogram: 1 0 0 0 0 0 0 0 0 0
Nghost:             39 ave          39 max          39 min
Histogram: 1 0 0 0 0 0 0 0 0 0
Neighs:             45 ave          45 max          45 min
Histogram: 1 0 0 0 0 0 0 0 0 0

Total # of neighbors = 45
Ave neighs/atom = 5
Neighbor list builds = 0
Dangerous builds = 0
Total energy (eV) = -4.38620227118861
Number of atoms = 9
Lattice constant (Angstoms) = 12.3675690413392
Total wall time: 0:00:00
