
     Program PWSCF v.7.4.1 starts on 21Oct2025 at 19:20: 6 

     This program is part of the open-source Quantum ESPRESSO suite
     for quantum simulation of materials; please cite
         "P. Giannozzi et al., J. Phys.:Condens. Matter 21 395502 (2009);
         "P. Giannozzi et al., J. Phys.:Condens. Matter 29 465901 (2017);
         "P. Giannozzi et al., J. Chem. Phys. 152 154105 (2020);
          URL http://www.quantum-espresso.org", 
     in publications or presentations arising from this work. More details at
     http://www.quantum-espresso.org/quote

     Parallel version (MPI), running on     2 processors

     MPI processes distributed on     1 nodes
     270 MiB available memory on the printing compute node when the environment starts

     Waiting for input...
     Reading input from standard input
Warning: card &CELL ignored
Warning: card     CELL_DYNAMICS = 'BFGS' ignored
Warning: card / ignored

     Current dimensions of program PWSCF are:
     Max number of different atomic species (ntypx) = 10
     Max number of k-points (npk) =  40000
     Max angular momentum in pseudopotentials (lmaxx) =  4
     file Cu.pz-d-rrkjus.UPF: wavefunction(s)  3D renormalized
     Message from routine setup:
     using ibrav=0 with symmetry is DISCOURAGED, use correct ibrav instead

     R & G space division:  proc/nbgrp/npool/nimage =       2
     Subspace diagonalization in iterative solution of the eigenvalue problem:
     a serial algorithm will be used


     Parallelization info
     --------------------
     sticks:   dense  smooth     PW     G-vecs:    dense   smooth      PW
     Min         348     174     54                 9078     3218     576
     Max         349     175     55                 9081     3221     579
     Sum         697     349    109                18159     6439    1155

     Using Slab Decomposition



     bravais-lattice index     =            0
     lattice parameter (alat)  =       5.2358  a.u.
     unit-cell volume          =     187.8922 (a.u.)^3
     number of atoms/cell      =            2
     number of atomic types    =            2
     number of electrons       =        22.00
     number of Kohn-Sham states=           15
     kinetic-energy cutoff     =      40.0000  Ry
     charge density cutoff     =     320.0000  Ry
     scf convergence threshold =      1.0E-07
     mixing beta               =       0.7000
     number of iterations used =            8  plain     mixing
     Exchange-correlation=  SLA  PZ   NOGX NOGC
                           (   1   1   0   0   0   0   0)

     celldm(1)=   5.235808  celldm(2)=   0.000000  celldm(3)=   0.000000
     celldm(4)=   0.000000  celldm(5)=   0.000000  celldm(6)=   0.000000

     crystal axes: (cart. coord. in units of alat)
               a(1) = (   1.000000   0.000000   0.000000 )  
               a(2) = (   0.000000   1.000000   0.000000 )  
               a(3) = (   0.000000   0.000000   1.309054 )  

     reciprocal axes: (cart. coord. in units 2 pi/alat)
               b(1) = (  1.000000  0.000000  0.000000 )  
               b(2) = (  0.000000  1.000000  0.000000 )  
               b(3) = (  0.000000  0.000000  0.763910 )  


     PseudoPot. # 1 for Au read from file:
     /home/bond/Software/QE/qe-7.4.1/pseudo/Au.pz-d-rrkjus.UPF
     MD5 check sum: 424ffd4ac9c90487cbadcd287136c95b
     Pseudo is Ultrasoft, Zval = 11.0
     Generated by new atomic code, or converted to UPF format
     Using radial grid of 1279 points,  3 beta functions with: 
                l(1) =   2
                l(2) =   2
                l(3) =   1
     Q(r) pseudized with 0 coefficients 


     PseudoPot. # 2 for Cu read from file:
     /home/bond/Software/QE/qe-7.4.1/pseudo/Cu.pz-d-rrkjus.UPF
     MD5 check sum: fd38ae683e239c95a66f426e1f8e5fc7
     Pseudo is Ultrasoft, Zval = 11.0
     Generated by new atomic code, or converted to UPF format
     Using radial grid of  899 points,  3 beta functions with: 
                l(1) =   2
                l(2) =   2
                l(3) =   1
     Q(r) pseudized with 0 coefficients 


     atomic species   valence    mass     pseudopotential
     Au               11.00   196.96657     Au( 1.00)
     Cu               11.00    63.54600     Cu( 1.00)

     16 Sym. Ops., with inversion, found



   Cartesian axes

     site n.     atom                  positions (alat units)
         1        Cu     tau(   1) = (   0.0000000   0.0000000   0.0000000  )
         2        Au     tau(   2) = (   0.5000018   0.5000018   0.6545276  )

     number of k points=    18  Methfessel-Paxton smearing, width (Ry)=  0.0200
                       cart. coord. in units 2pi/alat
        k(    1) = (   0.0833333   0.0833333   0.0636592), wk =   0.0740741
        k(    2) = (   0.0833333   0.0833333   0.1909776), wk =   0.0740741
        k(    3) = (   0.0833333   0.0833333   0.3182960), wk =   0.0740741
        k(    4) = (   0.0833333   0.2500000   0.0636592), wk =   0.1481481
        k(    5) = (   0.0833333   0.2500000   0.1909776), wk =   0.1481481
        k(    6) = (   0.0833333   0.2500000   0.3182960), wk =   0.1481481
        k(    7) = (   0.0833333   0.4166667   0.0636592), wk =   0.1481481
        k(    8) = (   0.0833333   0.4166667   0.1909776), wk =   0.1481481
        k(    9) = (   0.0833333   0.4166667   0.3182960), wk =   0.1481481
        k(   10) = (   0.2500000   0.2500000   0.0636592), wk =   0.0740741
        k(   11) = (   0.2500000   0.2500000   0.1909776), wk =   0.0740741
        k(   12) = (   0.2500000   0.2500000   0.3182960), wk =   0.0740741
        k(   13) = (   0.2500000   0.4166667   0.0636592), wk =   0.1481481
        k(   14) = (   0.2500000   0.4166667   0.1909776), wk =   0.1481481
        k(   15) = (   0.2500000   0.4166667   0.3182960), wk =   0.1481481
        k(   16) = (   0.4166667   0.4166667   0.0636592), wk =   0.0740741
        k(   17) = (   0.4166667   0.4166667   0.1909776), wk =   0.0740741
        k(   18) = (   0.4166667   0.4166667   0.3182960), wk =   0.0740741

     Dense  grid:    18159 G-vectors     FFT dimensions: (  30,  30,  40)

     Smooth grid:     6439 G-vectors     FFT dimensions: (  24,  24,  27)

     Estimated max dynamical RAM per process >      24.73 MB

     Estimated total dynamical RAM >      49.47 MB

     Initial potential from superposition of free atoms

     starting charge      21.9996, renormalised to      22.0000
     Starting wfcs are   15 randomized atomic wfcs

     total cpu time spent up to now is        1.2 secs

     Self-consistent Calculation

     iteration #  1     ecut=    40.00 Ry     beta= 0.70
     Davidson diagonalization with overlap
     ethr =  1.00E-02,  avg # of iterations =  4.3

     total cpu time spent up to now is        1.8 secs

     total energy              =    -154.62444919 Ry
     estimated scf accuracy    <       0.26303755 Ry

     iteration #  2     ecut=    40.00 Ry     beta= 0.70
     Davidson diagonalization with overlap
     ethr =  1.20E-03,  avg # of iterations =  2.0

     total cpu time spent up to now is        2.2 secs

     total energy              =    -154.70124034 Ry
     estimated scf accuracy    <       0.16558705 Ry

     iteration #  3     ecut=    40.00 Ry     beta= 0.70
     Davidson diagonalization with overlap
     ethr =  7.53E-04,  avg # of iterations =  2.0

     total cpu time spent up to now is        2.6 secs

     total energy              =    -154.73070004 Ry
     estimated scf accuracy    <       0.01275847 Ry

     iteration #  4     ecut=    40.00 Ry     beta= 0.70
     Davidson diagonalization with overlap
     ethr =  5.80E-05,  avg # of iterations =  2.7

     total cpu time spent up to now is        3.0 secs

     total energy              =    -154.73368132 Ry
     estimated scf accuracy    <       0.00087108 Ry

     iteration #  5     ecut=    40.00 Ry     beta= 0.70
     Davidson diagonalization with overlap
     ethr =  3.96E-06,  avg # of iterations =  3.8

     total cpu time spent up to now is        3.4 secs

     total energy              =    -154.73390404 Ry
     estimated scf accuracy    <       0.00008659 Ry

     iteration #  6     ecut=    40.00 Ry     beta= 0.70
     Davidson diagonalization with overlap
     ethr =  3.94E-07,  avg # of iterations =  1.6

     total cpu time spent up to now is        3.7 secs

     End of self-consistent calculation

          k = 0.0833 0.0833 0.0637 (   810 PWs)   bands (ev):

     5.9319   8.9391   9.0993  11.2916  11.4504  12.4226  12.6416  13.3223
    13.4518  13.7322  14.0486  18.1849  24.4237  25.4373  26.0086

          k = 0.0833 0.0833 0.1910 (   804 PWs)   bands (ev):

     6.5757   9.0528   9.3293  11.3810  11.4884  12.4460  12.5426  13.0177
    13.2490  13.6515  13.6680  15.6776  26.2445  26.5716  28.8551

          k = 0.0833 0.0833 0.3183 (   806 PWs)   bands (ev):

     7.4903   9.1784   9.5563  11.4711  11.6191  12.1338  12.5091  12.5333
    13.1975  13.2951  13.4666  13.9918  28.0725  28.3090  30.1797

          k = 0.0833 0.2500 0.0637 (   798 PWs)   bands (ev):

     7.1252   9.3894   9.9424  10.6363  11.5572  11.8889  12.7446  12.8746
    13.3040  13.4385  13.9069  20.3941  20.6579  25.5137  27.2561

          k = 0.0833 0.2500 0.1910 (   803 PWs)   bands (ev):

     7.6456   9.4068  10.1988  10.6645  11.4001  11.7554  12.6870  12.9046
    13.2327  13.4471  13.8960  17.4175  21.6539  27.5103  28.3154

          k = 0.0833 0.2500 0.3183 (   813 PWs)   bands (ev):

     8.3492   9.2319  10.2966  11.2035  11.4186  11.5849  12.3832  12.7742
    13.2705  13.6710  13.9112  15.0544  23.3062  25.3968  29.3618

          k = 0.0833 0.4167 0.0637 (   799 PWs)   bands (ev):

     8.5902   9.7354  10.0914  10.6804  11.6360  11.7797  12.6542  12.7864
    13.2104  13.5371  14.1855  16.7632  23.1321  26.1693  27.4510

          k = 0.0833 0.4167 0.1910 (   802 PWs)   bands (ev):

     8.6579   9.1647  10.6023  10.9150  11.5008  12.1455  12.6389  12.7380
    13.6692  13.8169  14.0726  16.9774  20.1228  23.6652  30.1959

          k = 0.0833 0.4167 0.3183 (   798 PWs)   bands (ev):

     8.6105   8.8774  10.8519  11.2953  11.3855  12.7097  12.7674  13.0315
    13.6733  13.8411  14.5139  15.9303  19.4134  21.5441  30.9181

          k = 0.2500 0.2500 0.0637 (   795 PWs)   bands (ev):

     8.1789   9.9057  10.4211  10.4439  10.6773  11.4483  13.0458  13.1236
    13.2112  13.5485  14.0888  21.4625  21.6332  22.8697  26.5120

          k = 0.2500 0.2500 0.1910 (   802 PWs)   bands (ev):

     8.6678  10.1245  10.4363  10.4831  10.5575  11.2201  13.0149  13.1119
    13.2428  13.7147  13.9773  18.7532  22.6288  23.3313  28.2760

          k = 0.2500 0.2500 0.3183 (   802 PWs)   bands (ev):

     9.2576   9.8985  10.4583  10.5199  10.8675  11.4875  12.5406  13.1341
    13.1395  13.3472  14.7938  16.4473  24.3547  24.4917  26.0176

          k = 0.2500 0.4167 0.0637 (   799 PWs)   bands (ev):

     9.0405   9.7999   9.8119  10.4397  10.9230  12.5132  13.2505  13.2650
    13.7484  13.9486  14.2687  17.5714  23.6215  25.1111  27.1211

          k = 0.2500 0.4167 0.1910 (   802 PWs)   bands (ev):

     9.1061   9.7651  10.2795  10.4640  10.8782  12.3263  12.9083  13.1608
    13.7898  13.8359  15.1010  18.4424  20.8536  24.3100  25.4461

          k = 0.2500 0.4167 0.3183 (   799 PWs)   bands (ev):

     9.0973   9.7449  10.4002  10.5340  11.5381  12.3292  12.5040  13.1060
    13.5780  13.6925  16.2510  18.1143  20.1464  22.0649  26.3422

          k = 0.4167 0.4167 0.0637 (   801 PWs)   bands (ev):

     8.4279   9.6589   9.6814   9.8225  13.0227  13.5972  13.6351  13.7633
    13.7726  14.1094  15.2194  17.6686  21.7398  24.3043  25.7270

          k = 0.4167 0.4167 0.1910 (   806 PWs)   bands (ev):

     8.6477   9.6734   9.7105  10.4644  12.5611  12.6401  13.3738  13.5568
    13.7707  13.8526  16.7331  19.2238  21.7971  23.1680  24.0242

          k = 0.4167 0.4167 0.3183 (   810 PWs)   bands (ev):

     8.9149   9.6263   9.7755  11.5085  12.1047  12.1269  12.7250  13.3384
    13.7632  13.7813  18.2582  20.4924  21.3556  22.4059  23.6938

     the Fermi energy is    15.7846 ev

!    total energy              =    -154.73391941 Ry
     estimated scf accuracy    <       0.00000004 Ry
     smearing contrib. (-TS)   =      -0.00010933 Ry
     internal energy E=F+TS    =    -154.73381009 Ry

     The total energy is F=E-TS. E is the sum of the following terms:
     one-electron contribution =      -4.10652086 Ry
     hartree contribution      =      27.67068219 Ry
     xc contribution           =     -24.55136836 Ry
     ewald contribution        =    -153.74660305 Ry

     convergence has been achieved in   6 iterations


     Computing stress (Cartesian axis) and pressure

          total   stress  (Ry/bohr**3)                   (kbar)     P=        1.14
  -0.00000102   0.00000000   0.00000000           -0.15        0.00        0.00
   0.00000000  -0.00000102   0.00000000            0.00       -0.15        0.00
   0.00000000   0.00000000   0.00002521            0.00        0.00        3.71

     Message from routine punch:
     Nothing written, as per user request (disk_io='none')

     init_run     :      0.93s CPU      0.98s WALL (       1 calls)
     electrons    :      2.32s CPU      2.47s WALL (       1 calls)
     stress       :      0.55s CPU      0.56s WALL (       1 calls)

     Called by init_run:
     wfcinit      :      0.11s CPU      0.12s WALL (       1 calls)
     potinit      :      0.16s CPU      0.16s WALL (       1 calls)
     hinit0       :      0.59s CPU      0.59s WALL (       1 calls)

     Called by electrons:
     c_bands      :      1.55s CPU      1.67s WALL (       6 calls)
     sum_band     :      0.51s CPU      0.53s WALL (       6 calls)
     v_of_rho     :      0.01s CPU      0.01s WALL (       7 calls)
     newd         :      0.27s CPU      0.30s WALL (       7 calls)
     mix_rho      :      0.01s CPU      0.01s WALL (       6 calls)

     Called by c_bands:
     init_us_2    :      0.04s CPU      0.04s WALL (     252 calls)
     cegterg      :      1.48s CPU      1.59s WALL (     108 calls)

     Called by *egterg:
     cdiaghg      :      0.12s CPU      0.13s WALL (     404 calls)
     h_psi        :      1.29s CPU      1.38s WALL (     422 calls)
     s_psi        :      0.02s CPU      0.02s WALL (     422 calls)
     g_psi        :      0.01s CPU      0.01s WALL (     296 calls)

     Called by h_psi:
     h_psi:calbec :      0.05s CPU      0.05s WALL (     422 calls)
     vloc_psi     :      1.21s CPU      1.30s WALL (     422 calls)
     add_vuspsi   :      0.02s CPU      0.02s WALL (     422 calls)

     General routines
     calbec       :      0.08s CPU      0.09s WALL (     764 calls)
     fft          :      0.17s CPU      0.17s WALL (      42 calls)
     ffts         :      0.13s CPU      0.13s WALL (      13 calls)
     fftw         :      1.25s CPU      1.34s WALL (   10000 calls)
     interpolate  :      0.13s CPU      0.13s WALL (       7 calls)

     Parallel routines

     PWSCF        :      4.01s CPU      4.26s WALL


   This run was terminated on:  19:20:10  21Oct2025            

=------------------------------------------------------------------------------=
   JOB DONE.
=------------------------------------------------------------------------------=
