
     Program PWSCF v.7.4.1 starts on 20Oct2025 at 17:52:21 

     This program is part of the open-source Quantum ESPRESSO suite
     for quantum simulation of materials; please cite
         "P. Giannozzi et al., J. Phys.:Condens. Matter 21 395502 (2009);
         "P. Giannozzi et al., J. Phys.:Condens. Matter 29 465901 (2017);
         "P. Giannozzi et al., J. Chem. Phys. 152 154105 (2020);
          URL http://www.quantum-espresso.org", 
     in publications or presentations arising from this work. More details at
     http://www.quantum-espresso.org/quote

     Parallel version (MPI), running on     2 processors

     MPI processes distributed on     1 nodes
     303 MiB available memory on the printing compute node when the environment starts

     Waiting for input...
     Reading input from standard input

     Current dimensions of program PWSCF are:
     Max number of different atomic species (ntypx) = 10
     Max number of k-points (npk) =  40000
     Max angular momentum in pseudopotentials (lmaxx) =  4
     file Fe.pbe-nd-rrkjus.UPF: wavefunction(s)  4S renormalized
     Message from routine setup:
     using ibrav=0 with symmetry is DISCOURAGED, use correct ibrav instead

     R & G space division:  proc/nbgrp/npool/nimage =       2
     Subspace diagonalization in iterative solution of the eigenvalue problem:
     a serial algorithm will be used


     Parallelization info
     --------------------
     sticks:   dense  smooth     PW     G-vecs:    dense   smooth      PW
     Min         218      86     45                 2887      739     265
     Max         219      87     46                 2888      742     266
     Sum         437     173     91                 5775     1481     531

     Using Slab Decomposition



     bravais-lattice index     =            0
     lattice parameter (alat)  =       4.4187  a.u.
     unit-cell volume          =      66.4137 (a.u.)^3
     number of atoms/cell      =            1
     number of atomic types    =            1
     number of electrons       =         8.00
     number of Kohn-Sham states=            8
     kinetic-energy cutoff     =      30.0000  Ry
     charge density cutoff     =     300.0000  Ry
     scf convergence threshold =      1.0E-07
     mixing beta               =       0.5000
     number of iterations used =            8  plain     mixing
     energy convergence thresh.=      1.0E-04
     force convergence thresh. =      1.0E-03
     press convergence thresh. =      5.0E-01
     Exchange-correlation=  SLA  PW   PBE  PBE
                           (   1   4   3   4   0   0   0)
     nstep                     =           50


     celldm(1)=   4.418687  celldm(2)=   0.000000  celldm(3)=   0.000000
     celldm(4)=   0.000000  celldm(5)=   0.000000  celldm(6)=   0.000000

     crystal axes: (cart. coord. in units of alat)
               a(1) = (  -0.577350   0.577350   0.577350 )  
               a(2) = (   0.577350  -0.577350   0.577350 )  
               a(3) = (   0.577350   0.577350  -0.577350 )  

     reciprocal axes: (cart. coord. in units 2 pi/alat)
               b(1) = (  0.000000  0.866025  0.866025 )  
               b(2) = (  0.866025  0.000000  0.866025 )  
               b(3) = (  0.866025  0.866025  0.000000 )  


     PseudoPot. # 1 for Fe read from file:
     /home/bond/Software/QE/qe-7.4.1/pseudo/Fe.pbe-nd-rrkjus.UPF
     MD5 check sum: 398036227a04b607635f6f5e8dfd8242
     Pseudo is Ultrasoft + core correction, Zval =  8.0
     Generated by new atomic code, or converted to UPF format
     Using radial grid of  957 points,  6 beta functions with: 
                l(1) =   0
                l(2) =   0
                l(3) =   1
                l(4) =   1
                l(5) =   2
                l(6) =   2
     Q(r) pseudized with 0 coefficients 


     atomic species   valence    mass     pseudopotential
     Fe                8.00    55.84500     Fe( 1.00)

     Starting magnetic structure 
     atomic species   magnetization
     Fe              0.700

     48 Sym. Ops., with inversion, found



   Cartesian axes

     site n.     atom                  positions (alat units)
         1        Fe     tau(   1) = (   0.0000000   0.0000000   0.0000000  )

     number of k points=    16  Methfessel-Paxton smearing, width (Ry)=  0.0200
                       cart. coord. in units 2pi/alat
        k(    1) = (   0.0000000   0.0000000   0.0000000), wk =   0.0046296
        k(    2) = (   0.1443376   0.1443376   0.0000000), wk =   0.0555556
        k(    3) = (   0.2886751   0.2886751   0.0000000), wk =   0.0555556
        k(    4) = (  -0.4330127  -0.4330127   0.0000000), wk =   0.0277778
        k(    5) = (   0.2886751   0.1443376   0.1443376), wk =   0.1111111
        k(    6) = (   0.4330127   0.2886751   0.1443376), wk =   0.2222222
        k(    7) = (   0.5773503   0.2886751   0.2886751), wk =   0.0370370
        k(    8) = (   0.2886751   0.2886751   0.2886751), wk =   0.0370370
        k(    9) = (   0.4330127   0.4330127   0.2886751), wk =   0.0555556
        k(   10) = (   0.0000000   0.0000000   0.2886751), wk =   0.0277778
        k(   11) = (  -0.0000000  -0.1443376   0.4330127), wk =   0.1111111
        k(   12) = (  -0.8660254  -0.2886751  -0.2886751), wk =   0.0555556
        k(   13) = (  -0.7216878  -0.1443376  -0.2886751), wk =   0.1111111
        k(   14) = (  -0.0000000  -0.0000000   0.5773503), wk =   0.0277778
        k(   15) = (  -0.8660254  -0.1443376  -0.1443376), wk =   0.0555556
        k(   16) = (  -0.8660254  -0.8660254  -0.8660254), wk =   0.0046296

     Dense  grid:     5775 G-vectors     FFT dimensions: (  25,  25,  25)

     Smooth grid:     1481 G-vectors     FFT dimensions: (  15,  15,  15)

     Estimated max dynamical RAM per process >      15.03 MB

     Estimated total dynamical RAM >      30.07 MB

     Check: negative core charge=   -0.000001
     Generating pointlists ...
     new r_m :   0.4125 (alat units)  1.8227 (a.u.) for type    1

     Initial potential from superposition of free atoms

     starting charge       7.9994, renormalised to       8.0000
     Starting wfcs are    6 randomized atomic wfcs +    2 random wfcs

     total cpu time spent up to now is        0.4 secs

     Self-consistent Calculation

     iteration #  1     ecut=    30.00 Ry     beta= 0.50
     Davidson diagonalization with overlap
     ethr =  1.00E-02,  avg # of iterations =  4.3

     total cpu time spent up to now is        0.5 secs

     total energy              =     -55.67246114 Ry
     estimated scf accuracy    <       0.30386843 Ry

     total magnetization       =     2.79 Bohr mag/cell
     absolute magnetization    =     2.79 Bohr mag/cell

     iteration #  2     ecut=    30.00 Ry     beta= 0.50
     Davidson diagonalization with overlap
     ethr =  3.80E-03,  avg # of iterations =  1.8

     total cpu time spent up to now is        0.6 secs

     total energy              =     -55.75703887 Ry
     estimated scf accuracy    <       0.03510386 Ry

     total magnetization       =     2.62 Bohr mag/cell
     absolute magnetization    =     2.63 Bohr mag/cell

     iteration #  3     ecut=    30.00 Ry     beta= 0.50
     Davidson diagonalization with overlap
     ethr =  4.39E-04,  avg # of iterations =  1.8

     total cpu time spent up to now is        0.7 secs

     total energy              =     -55.78042198 Ry
     estimated scf accuracy    <       0.01591470 Ry

     total magnetization       =     2.34 Bohr mag/cell
     absolute magnetization    =     2.38 Bohr mag/cell

     iteration #  4     ecut=    30.00 Ry     beta= 0.50
     Davidson diagonalization with overlap
     ethr =  1.99E-04,  avg # of iterations =  1.7

     total cpu time spent up to now is        0.8 secs

     total energy              =     -55.78885912 Ry
     estimated scf accuracy    <       0.00641890 Ry

     total magnetization       =     2.14 Bohr mag/cell
     absolute magnetization    =     2.25 Bohr mag/cell

     iteration #  5     ecut=    30.00 Ry     beta= 0.50
     Davidson diagonalization with overlap
     ethr =  8.02E-05,  avg # of iterations =  2.1

     total cpu time spent up to now is        0.8 secs

     total energy              =     -55.79108681 Ry
     estimated scf accuracy    <       0.00041182 Ry

     total magnetization       =     2.21 Bohr mag/cell
     absolute magnetization    =     2.30 Bohr mag/cell

     iteration #  6     ecut=    30.00 Ry     beta= 0.50
     Davidson diagonalization with overlap
     ethr =  5.15E-06,  avg # of iterations =  6.2

     total cpu time spent up to now is        0.9 secs

     total energy              =     -55.79117134 Ry
     estimated scf accuracy    <       0.00008589 Ry

     total magnetization       =     2.20 Bohr mag/cell
     absolute magnetization    =     2.30 Bohr mag/cell

     iteration #  7     ecut=    30.00 Ry     beta= 0.50
     Davidson diagonalization with overlap
     ethr =  1.07E-06,  avg # of iterations =  2.9

     total cpu time spent up to now is        1.0 secs

     total energy              =     -55.79120334 Ry
     estimated scf accuracy    <       0.00000266 Ry

     total magnetization       =     2.20 Bohr mag/cell
     absolute magnetization    =     2.29 Bohr mag/cell

     iteration #  8     ecut=    30.00 Ry     beta= 0.50
     Davidson diagonalization with overlap
     ethr =  3.33E-08,  avg # of iterations =  4.7

     Magnetic moment per site  (integrated on atomic sphere of radius R)
     atom   1 (R=0.413)  charge=  6.3637  magn=  2.2262

     total cpu time spent up to now is        1.1 secs

     End of self-consistent calculation

 ------ SPIN UP ------------


          k = 0.0000 0.0000 0.0000 (   177 PWs)   bands (ev):

     7.0699  13.6096  13.6096  13.6096  15.1698  15.1698  42.3714  42.3714

          k = 0.1443 0.1443 0.0000 (   188 PWs)   bands (ev):

     8.3033  13.2499  13.5197  14.3363  14.9293  15.2061  37.6647  40.7460

          k = 0.2887 0.2887 0.0000 (   182 PWs)   bands (ev):

    10.3901  12.5782  14.1597  15.1420  15.3325  15.9849  29.9542  37.2715

          k =-0.4330-0.4330 0.0000 (   186 PWs)   bands (ev):

    10.5048  12.2625  15.2519  15.4238  16.9476  16.9687  25.0904  35.7886

          k = 0.2887 0.1443 0.1443 (   179 PWs)   bands (ev):

    10.2457  12.8682  13.0157  14.8121  15.4238  15.9412  33.7856  35.0782

          k = 0.4330 0.2887 0.1443 (   185 PWs)   bands (ev):

    11.1706  12.4140  13.7847  15.1541  15.7655  18.9586  26.9727  32.2456

          k = 0.5774 0.2887 0.2887 (   185 PWs)   bands (ev):

    11.9357  12.6826  12.6826  15.5298  15.5298  24.1440  24.1441  27.3469

          k = 0.2887 0.2887 0.2887 (   186 PWs)   bands (ev):

    12.1989  12.3366  12.3366  15.3401  15.3401  18.9364  30.8563  30.8563

          k = 0.4330 0.4330 0.2887 (   182 PWs)   bands (ev):

    11.9518  12.2064  13.3730  15.4233  15.4587  22.6740  25.5115  29.7917

          k = 0.0000 0.0000 0.2887 (   177 PWs)   bands (ev):

     9.3968  13.7224  13.7224  13.9470  14.3239  15.6901  37.1161  39.4513

          k =-0.0000-0.1443 0.4330 (   186 PWs)   bands (ev):

    11.1335  12.8265  13.3679  14.6001  15.8466  17.0060  30.7406  36.0402

          k =-0.8660-0.2887-0.2887 (   182 PWs)   bands (ev):

    11.1060  13.0489  13.1158  14.7611  16.8615  20.1875  25.2411  34.4250

          k =-0.7217-0.1443-0.2887 (   185 PWs)   bands (ev):

    11.8601  11.8607  13.3810  15.2413  16.2160  21.2180  27.8021  28.9455

          k =-0.0000-0.0000 0.5774 (   196 PWs)   bands (ev):

    11.3796  11.5918  15.0044  15.0044  15.8215  19.9039  31.6530  31.6530

          k =-0.8660-0.1443-0.1443 (   190 PWs)   bands (ev):

    10.9955  11.1422  15.2008  15.5567  16.6913  24.4761  26.1392  29.6912

          k =-0.8660-0.8660-0.8660 (   188 PWs)   bands (ev):

    10.4844  10.4844  16.6073  16.6073  16.6073  27.4661  27.4661  27.4661

 ------ SPIN DOWN ----------


          k = 0.0000 0.0000 0.0000 (   177 PWs)   bands (ev):

     7.2279  15.7435  15.7435  15.7435  18.1379  18.1379  42.1937  42.1937

          k = 0.1443 0.1443 0.0000 (   188 PWs)   bands (ev):

     8.4832  15.3131  15.5849  16.5327  17.7862  18.1801  38.0999  40.8068

          k = 0.2887 0.2887 0.0000 (   182 PWs)   bands (ev):

    11.1402  14.5226  15.4541  17.8524  18.3494  18.3542  30.9436  37.3670

          k =-0.4330-0.4330 0.0000 (   186 PWs)   bands (ev):

    11.8961  14.1562  17.0820  18.0161  18.4802  19.4469  26.6036  35.8265

          k = 0.2887 0.1443 0.1443 (   179 PWs)   bands (ev):

    10.6007  14.8444  14.9186  17.5456  18.0714  18.4847  34.5047  35.6508

          k = 0.4330 0.2887 0.1443 (   185 PWs)   bands (ev):

    12.4963  14.2658  15.2053  17.8630  18.5676  20.7335  28.1460  32.8723

          k = 0.5774 0.2887 0.2887 (   185 PWs)   bands (ev):

    13.6130  14.3044  14.3044  18.2577  18.2577  25.3738  25.3739  28.3027

          k = 0.2887 0.2887 0.2887 (   186 PWs)   bands (ev):

    12.9222  14.1113  14.1113  18.3109  18.3109  20.8299  31.6353  31.6354

          k = 0.4330 0.4330 0.2887 (   182 PWs)   bands (ev):

    13.4451  13.9004  14.7300  18.3862  18.5262  23.9044  26.7225  30.5665

          k = 0.0000 0.0000 0.2887 (   177 PWs)   bands (ev):

     9.6295  15.7845  15.7845  16.5281  16.5715  18.6772  37.5868  40.0142

          k =-0.0000-0.1443 0.4330 (   186 PWs)   bands (ev):

    11.9996  14.8302  15.3651  16.9119  18.1961  19.3807  31.6787  36.7172

          k =-0.8660-0.2887-0.2887 (   182 PWs)   bands (ev):

    12.6882  14.8109  15.0732  17.2025  19.3506  21.5020  26.6248  35.0359

          k =-0.7217-0.1443-0.2887 (   185 PWs)   bands (ev):

    13.4175  13.8021  15.3282  17.5541  18.6503  22.6615  28.8808  29.7394

          k =-0.0000-0.0000 0.5774 (   196 PWs)   bands (ev):

    12.8785  13.6866  17.1247  17.1247  18.1878  21.3567  32.2779  32.2779

          k =-0.8660-0.1443-0.1443 (   190 PWs)   bands (ev):

    12.9119  13.0045  17.3824  17.7477  19.1607  25.3437  27.0083  30.1885

          k =-0.8660-0.8660-0.8660 (   188 PWs)   bands (ev):

    12.3840  12.3840  19.0671  19.0671  19.0671  27.7350  27.7350  27.7352

     the Fermi energy is    16.4014 ev

!    total energy              =     -55.79120688 Ry
     estimated scf accuracy    <       0.00000003 Ry
     smearing contrib. (-TS)   =       0.00030018 Ry
     internal energy E=F+TS    =     -55.79150706 Ry

     The total energy is F=E-TS. E is the sum of the following terms:
     one-electron contribution =      10.65091766 Ry
     hartree contribution      =       5.77329664 Ry
     xc contribution           =     -26.56714282 Ry
     ewald contribution        =     -45.64857853 Ry

     total magnetization       =     2.20 Bohr mag/cell
     absolute magnetization    =     2.29 Bohr mag/cell

     convergence has been achieved in   8 iterations

     Forces acting on atoms (cartesian axes, Ry/au):

     atom    1 type  1   force =     0.00000000    0.00000000    0.00000000

     Total force =     0.000000     Total SCF correction =     0.000000


     Computing stress (Cartesian axis) and pressure

          total   stress  (Ry/bohr**3)                   (kbar)     P=      423.29
   0.00287749  -0.00000000  -0.00000000          423.29       -0.00       -0.00
  -0.00000000   0.00287749  -0.00000000           -0.00      423.29       -0.00
  -0.00000000  -0.00000000   0.00287749           -0.00       -0.00      423.29


     BFGS Geometry Optimization
     Energy error            =      3.7E-02 Ry
     Gradient error          =      0.0E+00 Ry/Bohr
     Cell gradient error     =      4.2E+02 kbar

     number of scf cycles    =   1
     number of bfgs steps    =   0

     enthalpy           new  =     -55.7912068777 Ry

     new trust radius        =       0.1172499123 bohr
     new conv_thr            =       0.0000001000 Ry

     new unit-cell volume =     81.80238 a.u.^3 (    12.12186 Ang^3 )
     density =      7.65005 g/cm^3

CELL_PARAMETERS (angstrom)
  -1.447115232   1.447115232   1.447115232
   1.447115232  -1.447115232   1.447115232
   1.447115232   1.447115232  -1.447115232

ATOMIC_POSITIONS (angstrom)
Fe               0.0000000000        0.0000000000        0.0000000000


     Message from routine punch:
     Nothing written, as per user request (disk_io='none')
     NEW-OLD atomic charge density approx. for the potential
     New effective cutoffs (rho, wfc):  258.67   26.10

     Check: negative core charge=   -0.000002
     Generating pointlists ...

     total cpu time spent up to now is        1.3 secs

     Self-consistent Calculation

     iteration #  1     ecut=    30.00 Ry     beta= 0.50
     Davidson diagonalization with overlap
     ethr =  1.00E-06,  avg # of iterations =  6.9

     total cpu time spent up to now is        1.4 secs

     total energy              =     -55.80152319 Ry
     estimated scf accuracy    <       0.00141355 Ry

     total magnetization       =     2.24 Bohr mag/cell
     absolute magnetization    =     2.38 Bohr mag/cell

     iteration #  2     ecut=    30.00 Ry     beta= 0.50
     Davidson diagonalization with overlap
     ethr =  1.77E-05,  avg # of iterations =  1.3

     total cpu time spent up to now is        1.5 secs

     total energy              =     -55.80191654 Ry
     estimated scf accuracy    <       0.00060608 Ry

     total magnetization       =     2.26 Bohr mag/cell
     absolute magnetization    =     2.41 Bohr mag/cell

     iteration #  3     ecut=    30.00 Ry     beta= 0.50
     Davidson diagonalization with overlap
     ethr =  7.58E-06,  avg # of iterations =  1.1

     total cpu time spent up to now is        1.6 secs

     total energy              =     -55.80211278 Ry
     estimated scf accuracy    <       0.00021615 Ry

     total magnetization       =     2.27 Bohr mag/cell
     absolute magnetization    =     2.43 Bohr mag/cell

     iteration #  4     ecut=    30.00 Ry     beta= 0.50
     Davidson diagonalization with overlap
     ethr =  2.70E-06,  avg # of iterations =  2.0

     total cpu time spent up to now is        1.7 secs

     total energy              =     -55.80218862 Ry
     estimated scf accuracy    <       0.00001874 Ry

     total magnetization       =     2.29 Bohr mag/cell
     absolute magnetization    =     2.47 Bohr mag/cell

     iteration #  5     ecut=    30.00 Ry     beta= 0.50
     Davidson diagonalization with overlap
     ethr =  2.34E-07,  avg # of iterations =  2.8

     total cpu time spent up to now is        1.7 secs

     total energy              =     -55.80227476 Ry
     estimated scf accuracy    <       0.00000220 Ry

     total magnetization       =     2.33 Bohr mag/cell
     absolute magnetization    =     2.52 Bohr mag/cell

     iteration #  6     ecut=    30.00 Ry     beta= 0.50
     Davidson diagonalization with overlap
     ethr =  2.74E-08,  avg # of iterations =  3.1

     total cpu time spent up to now is        1.8 secs

     total energy              =     -55.80227980 Ry
     estimated scf accuracy    <       0.00000054 Ry

     total magnetization       =     2.32 Bohr mag/cell
     absolute magnetization    =     2.51 Bohr mag/cell

     iteration #  7     ecut=    30.00 Ry     beta= 0.50
     Davidson diagonalization with overlap
     ethr =  6.72E-09,  avg # of iterations =  2.8

     Magnetic moment per site  (integrated on atomic sphere of radius R)
     atom   1 (R=0.413)  charge=  6.1460  magn=  2.3964

     total cpu time spent up to now is        1.9 secs

     End of self-consistent calculation

 ------ SPIN UP ------------


          k = 0.0000 0.0000 0.0000 (   177 PWs)   bands (ev):

     4.4507  10.1607  10.1607  10.1607  11.2589  11.2589  36.6147  36.6147

          k = 0.1347 0.1347 0.0000 (   188 PWs)   bands (ev):

     5.5082   9.9065  10.1045  10.6943  11.0945  11.2837  31.4455  34.7389

          k = 0.2693 0.2693 0.0000 (   182 PWs)   bands (ev):

     7.5355   9.4235  10.5784  11.2555  11.3647  11.8962  23.9114  31.5173

          k =-0.4040-0.4040-0.0000 (   186 PWs)   bands (ev):

     7.8094   9.1935  11.3146  11.4220  12.5891  13.1312  19.2375  30.2415

          k = 0.2693 0.1347 0.1347 (   179 PWs)   bands (ev):

     7.2505   9.6407   9.7360  11.0158  11.4331  11.8745  27.7496  28.6345

          k = 0.4040 0.2693 0.1347 (   185 PWs)   bands (ev):

     8.3029   9.3039  10.3047  11.2571  11.7010  14.3723  21.1600  26.1608

          k = 0.5386 0.2693 0.2693 (   185 PWs)   bands (ev):

     8.9330   9.4896   9.4896  11.5316  11.5316  18.9387  18.9387  21.2701

          k = 0.2693 0.2693 0.2693 (   186 PWs)   bands (ev):

     8.9899   9.2452   9.2452  11.3706  11.3706  14.2647  25.0510  25.0510

          k = 0.4040 0.4040 0.2693 (   182 PWs)   bands (ev):

     8.9287   9.1451  10.0065  11.4287  11.4454  17.6863  19.8574  24.1006

          k = 0.0000 0.0000 0.2693 (   177 PWs)   bands (ev):

     6.4672  10.2547  10.2547  10.4168  10.6901  11.6153  31.3094  32.5604

          k =-0.0000-0.1347 0.4040 (   186 PWs)   bands (ev):

     8.1652   9.6043  10.0030  10.8871  11.7994  12.6725  24.6536  29.3007

          k =-0.8079-0.2693-0.2693 (   182 PWs)   bands (ev):

     8.2987   9.7611   9.8203  10.9902  12.5277  15.6083  19.4574  27.8952

          k =-0.6733-0.1347-0.2693 (   185 PWs)   bands (ev):

     8.8571   8.9044  10.0111  11.3594  12.0599  16.2982  22.1248  22.8960

          k = 0.0000 0.0000 0.5386 (   196 PWs)   bands (ev):

     8.4863   8.7247  11.2007  11.2007  11.7832  15.1553  25.4996  25.4996

          k =-0.8079-0.1347-0.1347 (   190 PWs)   bands (ev):

     8.2711   8.3690  11.3425  11.5983  12.4061  19.3070  20.5431  23.8725

          k =-0.8079-0.8079-0.8079 (   188 PWs)   bands (ev):

     7.8983   7.8983  12.3458  12.3458  12.3458  22.0669  22.0669  22.0669

 ------ SPIN DOWN ----------


          k = 0.0000 0.0000 0.0000 (   177 PWs)   bands (ev):

     4.4799  12.4693  12.4693  12.4693  14.3650  14.3650  36.2348  36.2348

          k = 0.1347 0.1347 0.0000 (   188 PWs)   bands (ev):

     5.5536  12.1452  12.3454  13.0684  14.1018  14.3967  31.7627  34.6482

          k = 0.2693 0.2693 0.0000 (   182 PWs)   bands (ev):

     8.1024  11.5407  12.0670  14.1206  14.4490  14.5164  24.7904  31.4637

          k =-0.4040-0.4040-0.0000 (   186 PWs)   bands (ev):

     9.2520  11.2574  13.0769  14.2321  14.6076  15.2729  20.7570  30.1374

          k = 0.2693 0.1347 0.1347 (   179 PWs)   bands (ev):

     7.4496  11.7803  11.8225  13.9102  14.2244  14.5988  28.3253  29.1431

          k = 0.4040 0.2693 0.1347 (   185 PWs)   bands (ev):

     9.6070  11.3134  11.8176  14.1272  14.6497  16.2228  22.2481  26.7041

          k = 0.5386 0.2693 0.2693 (   185 PWs)   bands (ev):

    10.7472  11.2015  11.2015  14.4185  14.4185  20.0788  20.0788  22.1901

          k = 0.2693 0.2693 0.2693 (   186 PWs)   bands (ev):

     9.6301  11.1731  11.1731  14.4794  14.4794  16.2883  25.7106  25.7106

          k = 0.4040 0.4040 0.2693 (   182 PWs)   bands (ev):

    10.5167  10.9870  11.4446  14.5297  14.6406  18.8602  21.0221  24.7705

          k = 0.0000 0.0000 0.2693 (   177 PWs)   bands (ev):

     6.5571  12.4930  12.4930  13.0740  13.2082  14.7401  31.5577  33.0612

          k =-0.0000-0.1347 0.4040 (   186 PWs)   bands (ev):

     8.8748  11.7661  12.1747  13.3830  14.3332  15.1838  25.4664  29.8764

          k =-0.8079-0.2693-0.2693 (   182 PWs)   bands (ev):

     9.9507  11.5776  11.9503  13.6080  15.2014  16.8388  20.8193  28.4027

          k =-0.6733-0.1347-0.2693 (   185 PWs)   bands (ev):

    10.4450  10.9751  12.1211  13.8549  14.6727  17.7145  23.0682  23.6153

          k = 0.0000 0.0000 0.5386 (   196 PWs)   bands (ev):

     9.9828  10.9791  13.5014  13.5014  14.3347  16.6132  26.0127  26.0128

          k =-0.8079-0.1347-0.1347 (   190 PWs)   bands (ev):

    10.3193  10.3460  13.7067  13.9686  15.0601  20.0586  21.3241  24.2533

          k =-0.8079-0.8079-0.8079 (   188 PWs)   bands (ev):

     9.9383   9.9383  14.9904  14.9904  14.9904  22.2138  22.2138  22.2138

     the Fermi energy is    12.4272 ev

!    total energy              =     -55.80228181 Ry
     estimated scf accuracy    <          5.1E-09 Ry
     smearing contrib. (-TS)   =       0.00021181 Ry
     internal energy E=F+TS    =     -55.80249362 Ry

     The total energy is F=E-TS. E is the sum of the following terms:
     one-electron contribution =       6.34632989 Ry
     hartree contribution      =       6.85767545 Ry
     xc contribution           =     -26.42137535 Ry
     ewald contribution        =     -42.58512361 Ry

     total magnetization       =     2.32 Bohr mag/cell
     absolute magnetization    =     2.51 Bohr mag/cell

     convergence has been achieved in   7 iterations

     Forces acting on atoms (cartesian axes, Ry/au):

     atom    1 type  1   force =     0.00000000    0.00000000    0.00000000

     Total force =     0.000000     Total SCF correction =     0.000000


     Computing stress (Cartesian axis) and pressure

          total   stress  (Ry/bohr**3)                   (kbar)     P=      -97.93
  -0.00066575   0.00000000  -0.00000000          -97.93        0.00       -0.00
   0.00000000  -0.00066575  -0.00000000            0.00      -97.93       -0.00
  -0.00000000  -0.00000000  -0.00066575           -0.00       -0.00      -97.93

     Energy error            =      1.1E-02 Ry
     Gradient error          =      0.0E+00 Ry/Bohr
     Cell gradient error     =      9.8E+01 kbar

     number of scf cycles    =   2
     number of bfgs steps    =   1

     enthalpy           old  =     -55.7912068777 Ry
     enthalpy           new  =     -55.8022818139 Ry

     CASE: enthalpy          _new < enthalpy          _old

     new trust radius        =       0.0254947264 bohr
     new conv_thr            =       0.0000000010 Ry

     new unit-cell volume =     78.39211 a.u.^3 (    11.61651 Ang^3 )
     density =      7.98284 g/cm^3

CELL_PARAMETERS (angstrom)
  -1.426719443   1.426719443   1.426719443
   1.426719443  -1.426719443   1.426719443
   1.426719443   1.426719443  -1.426719443

ATOMIC_POSITIONS (angstrom)
Fe               0.0000000000        0.0000000000        0.0000000000


     Message from routine punch:
     Nothing written, as per user request (disk_io='none')
     NEW-OLD atomic charge density approx. for the potential
     New effective cutoffs (rho, wfc):  266.12   26.85

     Check: negative core charge=   -0.000003
     Generating pointlists ...

     total cpu time spent up to now is        2.1 secs

     Self-consistent Calculation

     iteration #  1     ecut=    30.00 Ry     beta= 0.50
     Davidson diagonalization with overlap
     ethr =  1.00E-06,  avg # of iterations =  4.8

     total cpu time spent up to now is        2.2 secs

     total energy              =     -55.80386755 Ry
     estimated scf accuracy    <       0.00015151 Ry

     total magnetization       =     2.28 Bohr mag/cell
     absolute magnetization    =     2.46 Bohr mag/cell

     iteration #  2     ecut=    30.00 Ry     beta= 0.50
     Davidson diagonalization with overlap
     ethr =  1.89E-06,  avg # of iterations =  1.0

     total cpu time spent up to now is        2.2 secs

     total energy              =     -55.80391972 Ry
     estimated scf accuracy    <       0.00007513 Ry

     total magnetization       =     2.27 Bohr mag/cell
     absolute magnetization    =     2.44 Bohr mag/cell

     iteration #  3     ecut=    30.00 Ry     beta= 0.50
     Davidson diagonalization with overlap
     ethr =  9.39E-07,  avg # of iterations =  1.5

     total cpu time spent up to now is        2.3 secs

     total energy              =     -55.80396729 Ry
     estimated scf accuracy    <       0.00000444 Ry

     total magnetization       =     2.25 Bohr mag/cell
     absolute magnetization    =     2.42 Bohr mag/cell

     iteration #  4     ecut=    30.00 Ry     beta= 0.50
     Davidson diagonalization with overlap
     ethr =  5.55E-08,  avg # of iterations =  1.9

     total cpu time spent up to now is        2.4 secs

     total energy              =     -55.80396987 Ry
     estimated scf accuracy    <       0.00000085 Ry

     total magnetization       =     2.25 Bohr mag/cell
     absolute magnetization    =     2.41 Bohr mag/cell

     iteration #  5     ecut=    30.00 Ry     beta= 0.50
     Davidson diagonalization with overlap
     ethr =  1.06E-08,  avg # of iterations =  2.2

     total cpu time spent up to now is        2.5 secs

     total energy              =     -55.80397074 Ry
     estimated scf accuracy    <       0.00000010 Ry

     total magnetization       =     2.24 Bohr mag/cell
     absolute magnetization    =     2.41 Bohr mag/cell

     iteration #  6     ecut=    30.00 Ry     beta= 0.50
     Davidson diagonalization with overlap
     ethr =  1.29E-09,  avg # of iterations =  3.6

     total cpu time spent up to now is        2.5 secs

     total energy              =     -55.80397093 Ry
     estimated scf accuracy    <          7.2E-09 Ry

     total magnetization       =     2.24 Bohr mag/cell
     absolute magnetization    =     2.41 Bohr mag/cell

     iteration #  7     ecut=    30.00 Ry     beta= 0.50
     Davidson diagonalization with overlap
     ethr =  9.02E-11,  avg # of iterations =  4.0

     Magnetic moment per site  (integrated on atomic sphere of radius R)
     atom   1 (R=0.413)  charge=  6.1822  magn=  2.3069

     total cpu time spent up to now is        2.6 secs

     End of self-consistent calculation

 ------ SPIN UP ------------


          k = 0.0000 0.0000 0.0000 (   177 PWs)   bands (ev):

     4.9290  10.8402  10.8402  10.8402  12.0023  12.0023  37.7255  37.7255

          k = 0.1366 0.1366 0.0000 (   188 PWs)   bands (ev):

     6.0203  10.5665  10.7751  11.4092  11.8263  12.0293  32.6427  35.8995

          k = 0.2732 0.2732 0.0000 (   182 PWs)   bands (ev):

     8.0775  10.0484  11.2560  12.0029  12.1185  12.6930  25.0564  32.6242

          k =-0.4097-0.4097-0.0000 (   186 PWs)   bands (ev):

     8.3336   9.8023  12.0693  12.1819  13.4354  13.8415  20.3454  31.3083

          k = 0.2732 0.1366 0.1366 (   179 PWs)   bands (ev):

     7.8066  10.2730  10.3813  11.7444  12.1934  12.6621  28.8979  29.8739

          k = 0.4097 0.2732 0.1366 (   185 PWs)   bands (ev):

     8.8585   9.9174  10.9699  12.0059  12.4787  15.2415  22.2586  27.3219

          k = 0.5463 0.2732 0.2732 (   185 PWs)   bands (ev):

     9.5259  10.1048  10.1048  12.3000  12.3000  19.9174  19.9174  22.4244

          k = 0.2732 0.2732 0.2732 (   186 PWs)   bands (ev):

     9.5974   9.8535   9.8535  12.1266  12.1266  15.1568  26.1518  26.1518

          k = 0.4097 0.4097 0.2732 (   182 PWs)   bands (ev):

     9.5178   9.7484  10.6583  12.1899  12.2073  18.6264  20.9303  25.1796

          k =-0.0000 0.0000 0.2732 (   177 PWs)   bands (ev):

     7.0056  10.9369  10.9369  11.0926  11.4039  12.3874  32.4126  33.8872

          k =-0.0000-0.1366 0.4097 (   186 PWs)   bands (ev):

     8.7265  10.2219  10.6662  11.6078  12.5888  13.4880  25.8071  30.5838

          k =-0.8195-0.2732-0.2732 (   182 PWs)   bands (ev):

     8.8423  10.3873  10.4706  11.7190  13.3694  16.4607  20.5510  29.1358

          k =-0.6829-0.1366-0.2732 (   185 PWs)   bands (ev):

     9.4318   9.4747  10.6720  12.1146  12.8660  17.2214  23.1926  24.0431

          k =-0.0000-0.0000 0.5463 (   196 PWs)   bands (ev):

     9.0373   9.2788  11.9441  11.9441  12.5713  16.0442  26.6655  26.6655

          k =-0.8195-0.1366-0.1366 (   190 PWs)   bands (ev):

     8.7978   8.9030  12.0965  12.3695  13.2390  20.2753  21.5998  24.9736

          k =-0.8195-0.8195-0.8195 (   188 PWs)   bands (ev):

     8.3996   8.3996  13.1745  13.1745  13.1745  23.0873  23.0873  23.0873

 ------ SPIN DOWN ----------


          k = 0.0000 0.0000 0.0000 (   177 PWs)   bands (ev):

     4.9806  13.0383  13.0383  13.0383  15.0484  15.0484  37.3910  37.3910

          k = 0.1366 0.1366 0.0000 (   188 PWs)   bands (ev):

     6.0887  12.6966  12.9114  13.6707  14.7685  15.0818  32.9739  35.8424

          k = 0.2732 0.2732 0.0000 (   182 PWs)   bands (ev):

     8.6646  12.0610  12.6705  14.7882  15.1278  15.2096  25.9347  32.6064

          k =-0.4097-0.4097-0.0000 (   186 PWs)   bands (ev):

     9.7308  11.7636  13.8200  14.9085  15.3070  15.9976  21.8222  31.2400

          k = 0.2732 0.1366 0.1366 (   179 PWs)   bands (ev):

     8.0284  12.3214  12.3633  14.5646  14.8955  15.2996  29.4893  30.3797

          k = 0.4097 0.2732 0.1366 (   185 PWs)   bands (ev):

    10.1354  11.8332  12.4263  14.7949  15.3508  17.0252  23.3351  27.8675

          k = 0.5463 0.2732 0.2732 (   185 PWs)   bands (ev):

    11.2524  11.7610  11.7610  15.1028  15.1028  21.0472  21.0472  23.3226

          k = 0.2732 0.2732 0.2732 (   186 PWs)   bands (ev):

    10.2317  11.6908  11.6908  15.1698  15.1698  17.0902  26.8182  26.8182

          k = 0.4097 0.4097 0.2732 (   182 PWs)   bands (ev):

    11.0392  11.4992  12.0321  15.2233  15.3422  19.7753  22.0704  25.8517

          k =-0.0000 0.0000 0.2732 (   177 PWs)   bands (ev):

     7.1200  13.0668  13.0668  13.6746  13.8223  15.4510  32.7076  34.3788

          k =-0.0000-0.1366 0.4097 (   186 PWs)   bands (ev):

     9.4532  12.3216  12.7318  14.0086  15.0049  15.9410  26.6241  31.1555

          k =-0.8195-0.2732-0.2732 (   182 PWs)   bands (ev):

    10.4487  12.1740  12.4959  14.2490  15.9219  17.6922  21.8805  29.6418

          k =-0.6829-0.1366-0.2732 (   185 PWs)   bands (ev):

    10.9910  11.4922  12.6864  14.5052  15.3695  18.6150  24.1422  24.7541

          k =-0.0000-0.0000 0.5463 (   196 PWs)   bands (ev):

    10.5197  11.4786  14.1345  14.1345  15.0045  17.4797  27.1785  27.1785

          k =-0.8195-0.1366-0.1366 (   190 PWs)   bands (ev):

    10.7980  10.8371  14.3483  14.6307  15.7723  21.0369  22.3755  25.3586

          k =-0.8195-0.8195-0.8195 (   188 PWs)   bands (ev):

    10.3912  10.3912  15.6986  15.6986  15.6986  23.2459  23.2459  23.2459

     the Fermi energy is    13.1429 ev

!    total energy              =     -55.80397096 Ry
     estimated scf accuracy    <          2.6E-10 Ry
     smearing contrib. (-TS)   =       0.00059066 Ry
     internal energy E=F+TS    =     -55.80456162 Ry

     The total energy is F=E-TS. E is the sum of the following terms:
     one-electron contribution =       7.20488384 Ry
     hartree contribution      =       6.62271294 Ry
     xc contribution           =     -26.43825554 Ry
     ewald contribution        =     -43.19390285 Ry

     total magnetization       =     2.24 Bohr mag/cell
     absolute magnetization    =     2.41 Bohr mag/cell

     convergence has been achieved in   7 iterations

     Forces acting on atoms (cartesian axes, Ry/au):

     atom    1 type  1   force =     0.00000000    0.00000000    0.00000000

     Total force =     0.000000     Total SCF correction =     0.000000


     Computing stress (Cartesian axis) and pressure

          total   stress  (Ry/bohr**3)                   (kbar)     P=      -41.89
  -0.00028474  -0.00000000  -0.00000000          -41.89       -0.00       -0.00
  -0.00000000  -0.00028474  -0.00000000           -0.00      -41.89       -0.00
  -0.00000000  -0.00000000  -0.00028474           -0.00       -0.00      -41.89

     Energy error            =      1.7E-03 Ry
     Gradient error          =      0.0E+00 Ry/Bohr
     Cell gradient error     =      4.2E+01 kbar

     number of scf cycles    =   3
     number of bfgs steps    =   2

     enthalpy           old  =     -55.8022818139 Ry
     enthalpy           new  =     -55.8039709580 Ry

     CASE: enthalpy          _new < enthalpy          _old

     new trust radius        =       0.0180122579 bohr
     new conv_thr            =       0.0000000010 Ry

     new unit-cell volume =     76.02417 a.u.^3 (    11.26562 Ang^3 )
     density =      8.23149 g/cm^3

CELL_PARAMETERS (angstrom)
  -1.412206998   1.412206998   1.412206998
   1.412206998  -1.412206998   1.412206998
   1.412206998   1.412206998  -1.412206998

ATOMIC_POSITIONS (angstrom)
Fe               0.0000000000        0.0000000000        0.0000000000


     Message from routine punch:
     Nothing written, as per user request (disk_io='none')
     NEW-OLD atomic charge density approx. for the potential
     New effective cutoffs (rho, wfc):  271.62   27.41

     Check: negative core charge=   -0.000003
     Generating pointlists ...

     total cpu time spent up to now is        2.8 secs

     Self-consistent Calculation

     iteration #  1     ecut=    30.00 Ry     beta= 0.50
     Davidson diagonalization with overlap
     ethr =  1.00E-06,  avg # of iterations =  4.3

     total cpu time spent up to now is        2.9 secs

     total energy              =     -55.80416832 Ry
     estimated scf accuracy    <       0.00003764 Ry

     total magnetization       =     2.23 Bohr mag/cell
     absolute magnetization    =     2.39 Bohr mag/cell

     iteration #  2     ecut=    30.00 Ry     beta= 0.50
     Davidson diagonalization with overlap
     ethr =  4.70E-07,  avg # of iterations =  1.1

     total cpu time spent up to now is        2.9 secs

     total energy              =     -55.80418020 Ry
     estimated scf accuracy    <       0.00001514 Ry

     total magnetization       =     2.23 Bohr mag/cell
     absolute magnetization    =     2.38 Bohr mag/cell

     iteration #  3     ecut=    30.00 Ry     beta= 0.50
     Davidson diagonalization with overlap
     ethr =  1.89E-07,  avg # of iterations =  1.3

     total cpu time spent up to now is        3.0 secs

     total energy              =     -55.80418400 Ry
     estimated scf accuracy    <       0.00000297 Ry

     total magnetization       =     2.23 Bohr mag/cell
     absolute magnetization    =     2.38 Bohr mag/cell

     iteration #  4     ecut=    30.00 Ry     beta= 0.50
     Davidson diagonalization with overlap
     ethr =  3.71E-08,  avg # of iterations =  2.2

     total cpu time spent up to now is        3.1 secs

     total energy              =     -55.80418548 Ry
     estimated scf accuracy    <       0.00000010 Ry

     total magnetization       =     2.23 Bohr mag/cell
     absolute magnetization    =     2.37 Bohr mag/cell

     iteration #  5     ecut=    30.00 Ry     beta= 0.50
     Davidson diagonalization with overlap
     ethr =  1.28E-09,  avg # of iterations =  3.9

     total cpu time spent up to now is        3.2 secs

     total energy              =     -55.80418565 Ry
     estimated scf accuracy    <          1.9E-09 Ry

     total magnetization       =     2.22 Bohr mag/cell
     absolute magnetization    =     2.37 Bohr mag/cell

     iteration #  6     ecut=    30.00 Ry     beta= 0.50
     Davidson diagonalization with overlap
     ethr =  2.33E-11,  avg # of iterations =  5.0

     Magnetic moment per site  (integrated on atomic sphere of radius R)
     atom   1 (R=0.413)  charge=  6.2117  magn=  2.2804

     total cpu time spent up to now is        3.3 secs

     End of self-consistent calculation

 ------ SPIN UP ------------


          k = 0.0000 0.0000 0.0000 (   177 PWs)   bands (ev):

     5.2899  11.3282  11.3282  11.3282  12.5526  12.5526  38.5461  38.5461

          k = 0.1380 0.1380 0.0000 (   188 PWs)   bands (ev):

     6.4061  11.0401  11.2583  11.9238  12.3665  12.5813  33.5268  36.7567

          k = 0.2760 0.2760 0.0000 (   182 PWs)   bands (ev):

     8.4777  10.4959  11.7576  12.5500  12.6766  13.2691  25.9062  33.4436

          k =-0.4139-0.4139-0.0000 (   186 PWs)   bands (ev):

     8.7148  10.2380  12.6234  12.7445  14.0485  14.3750  21.1660  32.0982

          k = 0.2760 0.1380 0.1380 (   179 PWs)   bands (ev):

     8.2226  10.7302  10.8453  12.2795  12.7547  13.2343  29.7500  30.7887

          k = 0.4139 0.2760 0.1380 (   185 PWs)   bands (ev):

     9.2633  10.3583  11.4589  12.5547  13.0499  15.8834  23.0742  28.1820

          k = 0.5519 0.2760 0.2760 (   185 PWs)   bands (ev):

     9.9516  10.5549  10.5549  12.8626  12.8626  20.6456  20.6456  23.2792

          k = 0.2760 0.2760 0.2760 (   186 PWs)   bands (ev):

    10.0456  10.2913  10.2913  12.6850  12.6850  15.8118  26.9691  26.9691

          k = 0.4139 0.4139 0.2760 (   182 PWs)   bands (ev):

     9.9446  10.1819  11.1318  12.7517  12.7714  19.3242  21.7247  25.9805

          k =-0.0000 0.0000 0.2760 (   177 PWs)   bands (ev):

     7.4107  11.4275  11.4275  11.5914  11.9176  12.9597  33.2336  34.8654

          k =-0.0000-0.1380 0.4139 (   186 PWs)   bands (ev):

     9.1424  10.6770  11.1426  12.1318  13.1592  14.0943  26.6635  31.5338

          k =-0.8279-0.2760-0.2760 (   182 PWs)   bands (ev):

     9.2396  10.8505  10.9374  12.2508  13.9791  17.0989  21.3619  30.0551

          k =-0.6899-0.1380-0.2760 (   185 PWs)   bands (ev):

     9.8551   9.8935  11.1489  12.6619  13.4509  17.9089  23.9878  24.8937

          k =-0.0000-0.0000 0.5519 (   196 PWs)   bands (ev):

     9.4450   9.6861  12.4808  12.4808  13.1406  16.7075  27.5303  27.5303

          k =-0.8279-0.1380-0.1380 (   190 PWs)   bands (ev):

     9.1847   9.2962  12.6409  12.9274  13.8420  20.9980  22.3848  25.7909

          k =-0.8279-0.8279-0.8279 (   188 PWs)   bands (ev):

     8.7676   8.7676  13.7743  13.7743  13.7743  23.8454  23.8454  23.8454

 ------ SPIN DOWN ----------


          k = 0.0000 0.0000 0.0000 (   177 PWs)   bands (ev):

     5.3604  13.4980  13.4980  13.4980  15.5789  15.5789  38.2416  38.2416

          k = 0.1380 0.1380 0.0000 (   188 PWs)   bands (ev):

     6.4941  13.1417  13.3664  14.1565  15.2868  15.6138  33.8748  36.7215

          k = 0.2760 0.2760 0.0000 (   182 PWs)   bands (ev):

     9.0904  12.4806  13.1427  15.3121  15.6741  15.7482  26.8006  33.4478

          k =-0.4139-0.4139-0.0000 (   186 PWs)   bands (ev):

    10.1033  12.1717  14.3782  15.4394  15.8510  16.5807  22.6409  32.0511

          k = 0.2760 0.1380 0.1380 (   179 PWs)   bands (ev):

     8.4664  12.7526  12.7982  15.0758  15.4340  15.8449  30.3625  31.3036

          k = 0.4139 0.2760 0.1380 (   185 PWs)   bands (ev):

    10.5424  12.2485  12.8993  15.3194  15.9002  17.6554  24.1630  28.7401

          k = 0.5519 0.2760 0.2760 (   185 PWs)   bands (ev):

    11.6556  12.1962  12.1962  15.6412  15.6412  21.7889  21.7889  24.1819

          k = 0.2760 0.2760 0.2760 (   186 PWs)   bands (ev):

    10.6908  12.1038  12.1038  15.7079  15.7079  17.7243  27.6533  27.6533

          k = 0.4139 0.4139 0.2760 (   182 PWs)   bands (ev):

    11.4500  11.9085  12.4911  15.7648  15.8879  20.4814  22.8711  26.6682

          k =-0.0000 0.0000 0.2760 (   177 PWs)   bands (ev):

     7.5459  13.5289  13.5289  14.1591  14.2971  16.0035  33.5619  35.3656

          k =-0.0000-0.1380 0.4139 (   186 PWs)   bands (ev):

     9.8909  12.7533  13.1800  14.5039  15.5455  16.5280  27.4987  32.1195

          k =-0.8279-0.2760-0.2760 (   182 PWs)   bands (ev):

    10.8347  12.6282  12.9348  14.7537  16.5016  18.3441  22.6938  30.5756

          k =-0.6899-0.1380-0.2760 (   185 PWs)   bands (ev):

    11.4091  11.8915  13.1369  15.0235  15.9260  19.3067  24.9576  25.6153

          k =-0.0000-0.0000 0.5519 (   196 PWs)   bands (ev):

    10.9274  11.8625  14.6420  14.6420  15.5439  18.1427  28.0591  28.0591

          k =-0.8279-0.1380-0.1380 (   190 PWs)   bands (ev):

    11.1655  11.2130  14.8631  15.1597  16.3455  21.7772  23.1731  26.1925

          k =-0.8279-0.8279-0.8279 (   188 PWs)   bands (ev):

    10.7384  10.7384  16.2685  16.2685  16.2685  24.0215  24.0215  24.0215

     the Fermi energy is    13.6977 ev

!    total energy              =     -55.80418566 Ry
     estimated scf accuracy    <          3.7E-11 Ry
     smearing contrib. (-TS)   =       0.00067971 Ry
     internal energy E=F+TS    =     -55.80486537 Ry

     The total energy is F=E-TS. E is the sum of the following terms:
     one-electron contribution =       7.83107403 Ry
     hartree contribution      =       6.45916633 Ry
     xc contribution           =     -26.45732382 Ry
     ewald contribution        =     -43.63778192 Ry

     total magnetization       =     2.22 Bohr mag/cell
     absolute magnetization    =     2.37 Bohr mag/cell

     convergence has been achieved in   6 iterations

     Forces acting on atoms (cartesian axes, Ry/au):

     atom    1 type  1   force =     0.00000000    0.00000000    0.00000000

     Total force =     0.000000     Total SCF correction =     0.000000


     Computing stress (Cartesian axis) and pressure

          total   stress  (Ry/bohr**3)                   (kbar)     P=       17.51
   0.00011900  -0.00000000  -0.00000000           17.51       -0.00       -0.00
  -0.00000000   0.00011900  -0.00000000           -0.00       17.51       -0.00
  -0.00000000  -0.00000000   0.00011900           -0.00       -0.00       17.51

     Energy error            =      2.1E-04 Ry
     Gradient error          =      0.0E+00 Ry/Bohr
     Cell gradient error     =      1.8E+01 kbar

     number of scf cycles    =   4
     number of bfgs steps    =   3

     enthalpy           old  =     -55.8039709580 Ry
     enthalpy           new  =     -55.8041856567 Ry

     CASE: enthalpy          _new < enthalpy          _old

     new trust radius        =       0.0052060419 bohr
     new conv_thr            =       0.0000000010 Ry

     new unit-cell volume =     76.70709 a.u.^3 (    11.36682 Ang^3 )
     density =      8.15820 g/cm^3

CELL_PARAMETERS (angstrom)
  -1.416422994   1.416422994   1.416422994
   1.416422994  -1.416422994   1.416422994
   1.416422994   1.416422994  -1.416422994

ATOMIC_POSITIONS (angstrom)
Fe               0.0000000000        0.0000000000        0.0000000000


     Message from routine punch:
     Nothing written, as per user request (disk_io='none')
     NEW-OLD atomic charge density approx. for the potential
     New effective cutoffs (rho, wfc):  270.01   27.25

     Check: negative core charge=   -0.000003
     Generating pointlists ...

     total cpu time spent up to now is        3.4 secs

     Self-consistent Calculation

     iteration #  1     ecut=    30.00 Ry     beta= 0.50
     Davidson diagonalization with overlap
     ethr =  1.00E-06,  avg # of iterations =  3.4

     Threshold (ethr) on eigenvalues was too large:
     Diagonalizing with lowered threshold

     Davidson diagonalization with overlap
     ethr =  3.38E-08,  avg # of iterations =  1.9

     total cpu time spent up to now is        3.6 secs

     total energy              =     -55.80422201 Ry
     estimated scf accuracy    <       0.00000257 Ry

     total magnetization       =     2.23 Bohr mag/cell
     absolute magnetization    =     2.38 Bohr mag/cell

     iteration #  2     ecut=    30.00 Ry     beta= 0.50
     Davidson diagonalization with overlap
     ethr =  3.21E-08,  avg # of iterations =  1.2

     total cpu time spent up to now is        3.6 secs

     total energy              =     -55.80422275 Ry
     estimated scf accuracy    <       0.00000102 Ry

     total magnetization       =     2.23 Bohr mag/cell
     absolute magnetization    =     2.38 Bohr mag/cell

     iteration #  3     ecut=    30.00 Ry     beta= 0.50
     Davidson diagonalization with overlap
     ethr =  1.27E-08,  avg # of iterations =  1.2

     total cpu time spent up to now is        3.7 secs

     total energy              =     -55.80422305 Ry
     estimated scf accuracy    <       0.00000028 Ry

     total magnetization       =     2.23 Bohr mag/cell
     absolute magnetization    =     2.38 Bohr mag/cell

     iteration #  4     ecut=    30.00 Ry     beta= 0.50
     Davidson diagonalization with overlap
     ethr =  3.54E-09,  avg # of iterations =  2.0

     total cpu time spent up to now is        3.8 secs

     total energy              =     -55.80422317 Ry
     estimated scf accuracy    <          8.8E-09 Ry

     total magnetization       =     2.23 Bohr mag/cell
     absolute magnetization    =     2.38 Bohr mag/cell

     iteration #  5     ecut=    30.00 Ry     beta= 0.50
     Davidson diagonalization with overlap
     ethr =  1.10E-10,  avg # of iterations =  3.8

     Magnetic moment per site  (integrated on atomic sphere of radius R)
     atom   1 (R=0.413)  charge=  6.2029  magn=  2.2862

     total cpu time spent up to now is        3.8 secs

     End of self-consistent calculation

 ------ SPIN UP ------------


          k = 0.0000 0.0000 0.0000 (   177 PWs)   bands (ev):

     5.1831  11.1853  11.1853  11.1853  12.3905  12.3905  38.3050  38.3050

          k = 0.1376 0.1376 0.0000 (   188 PWs)   bands (ev):

     6.2920  10.9014  11.1167  11.7730  12.2075  12.4187  33.2670  36.5049

          k = 0.2751 0.2751 0.0000 (   182 PWs)   bands (ev):

     8.3599  10.3650  11.6098  12.3892  12.5122  13.1001  25.6559  33.2027

          k =-0.4127-0.4127-0.0000 (   186 PWs)   bands (ev):

     8.6029  10.1105  12.4605  12.5787  13.8686  14.2174  20.9244  31.8660

          k = 0.2751 0.1376 0.1376 (   179 PWs)   bands (ev):

     8.0998  10.5962  10.7094  12.1222  12.5895  13.0663  29.4992  30.5199

          k = 0.4127 0.2751 0.1376 (   185 PWs)   bands (ev):

     9.1444  10.2292  11.3150  12.3934  12.8819  15.6944  22.8340  27.9290

          k = 0.5503 0.2751 0.2751 (   185 PWs)   bands (ev):

     9.8270  10.4227  10.4227  12.6972  12.6972  20.4310  20.4310  23.0276

          k = 0.2751 0.2751 0.2751 (   186 PWs)   bands (ev):

     9.9136  10.1631  10.1631  12.5206  12.5206  15.6192  26.7284  26.7284

          k = 0.4127 0.4127 0.2751 (   182 PWs)   bands (ev):

     9.8194  10.0550  10.9928  12.5863  12.6052  19.1186  21.4909  25.7447

          k =-0.0000 0.0000 0.2751 (   177 PWs)   bands (ev):

     7.2910  11.2838  11.2838  11.4446  11.7671  12.7911  32.9919  34.5780

          k = 0.0000-0.1376 0.4127 (   186 PWs)   bands (ev):

     9.0198  10.5431  11.0031  11.9780  12.9919  13.9156  26.4113  31.2542

          k =-0.8254-0.2751-0.2751 (   182 PWs)   bands (ev):

     9.1229  10.7141  10.8007  12.0946  13.8003  16.9105  21.1231  29.7846

          k =-0.6878-0.1376-0.2751 (   185 PWs)   bands (ev):

     9.7306   9.7704  11.0091  12.5013  13.2793  17.7062  23.7535  24.6433

          k =-0.0000 0.0000 0.5503 (   196 PWs)   bands (ev):

     9.3249   9.5664  12.3235  12.3235  12.9737  16.5119  27.2757  27.2757

          k =-0.8254-0.1376-0.1376 (   190 PWs)   bands (ev):

     9.0710   9.1806  12.4813  12.7638  13.6651  20.7849  22.1536  25.5502

          k =-0.8254-0.8254-0.8254 (   188 PWs)   bands (ev):

     8.6595   8.6595  13.5983  13.5983  13.5983  23.6221  23.6221  23.6221

 ------ SPIN DOWN ----------


          k = 0.0000 0.0000 0.0000 (   177 PWs)   bands (ev):

     5.2481  13.3608  13.3608  13.3608  15.4216  15.4216  37.9921  37.9921

          k = 0.1376 0.1376 0.0000 (   188 PWs)   bands (ev):

     6.3742  13.0089  13.2307  14.0115  15.1331  15.4561  33.6099  36.4636

          k = 0.2751 0.2751 0.0000 (   182 PWs)   bands (ev):

     8.9646  12.3554  13.0024  15.1564  15.5110  15.5885  26.5449  33.2009

          k =-0.4127-0.4127-0.0000 (   186 PWs)   bands (ev):

     9.9929  12.0499  14.2135  15.2817  15.6896  16.4067  22.3984  31.8131

          k = 0.2751 0.1376 0.1376 (   179 PWs)   bands (ev):

     8.3370  12.6242  12.6685  14.9240  15.2734  15.6831  30.1052  31.0316

          k = 0.4127 0.2751 0.1376 (   185 PWs)   bands (ev):

    10.4219  12.1248  12.7589  15.1635  15.7370  17.4681  23.9182  28.4830

          k = 0.5503 0.2751 0.2751 (   185 PWs)   bands (ev):

    11.5355  12.0671  12.0671  15.4811  15.4811  21.5694  21.5694  23.9280

          k = 0.2751 0.2751 0.2751 (   186 PWs)   bands (ev):

    10.5550  11.9808  11.9808  15.5482  15.5482  17.5356  27.4069  27.4069

          k = 0.4127 0.4127 0.2751 (   182 PWs)   bands (ev):

    11.3279  11.7865  12.3548  15.6040  15.7260  20.2721  22.6343  26.4272

          k =-0.0000 0.0000 0.2751 (   177 PWs)   bands (ev):

     7.4200  13.3910  13.3910  14.0145  14.1564  15.8396  33.3107  35.0750

          k = 0.0000-0.1376 0.4127 (   186 PWs)   bands (ev):

     9.7617  12.6253  13.0463  14.3565  15.3841  16.3539  27.2406  31.8351

          k =-0.8254-0.2751-0.2751 (   182 PWs)   bands (ev):

    10.7203  12.4940  12.8039  14.6037  16.3286  18.1512  22.4531  30.3000

          k =-0.6878-0.1376-0.2751 (   185 PWs)   bands (ev):

    11.2854  11.7733  13.0027  14.8691  15.7601  19.1018  24.7167  25.3610

          k =-0.0000 0.0000 0.5503 (   196 PWs)   bands (ev):

    10.8070  11.7490  14.4907  14.4907  15.3829  17.9465  27.7991  27.7991

          k =-0.8254-0.1376-0.1376 (   190 PWs)   bands (ev):

    11.0568  11.1019  14.7096  15.0020  16.1744  21.5585  22.9374  25.9464

          k =-0.8254-0.8254-0.8254 (   188 PWs)   bands (ev):

    10.6358  10.6358  16.0984  16.0984  16.0984  23.7928  23.7928  23.7928

     the Fermi energy is    13.5319 ev

!    total energy              =     -55.80422319 Ry
     estimated scf accuracy    <          5.1E-10 Ry
     smearing contrib. (-TS)   =       0.00066210 Ry
     internal energy E=F+TS    =     -55.80488529 Ry

     The total energy is F=E-TS. E is the sum of the following terms:
     one-electron contribution =       7.64787575 Ry
     hartree contribution      =       6.50653129 Ry
     xc contribution           =     -26.45139867 Ry
     ewald contribution        =     -43.50789366 Ry

     total magnetization       =     2.23 Bohr mag/cell
     absolute magnetization    =     2.38 Bohr mag/cell

     convergence has been achieved in   5 iterations

     Forces acting on atoms (cartesian axes, Ry/au):

     atom    1 type  1   force =     0.00000000    0.00000000    0.00000000

     Total force =     0.000000     Total SCF correction =     0.000000


     Computing stress (Cartesian axis) and pressure

          total   stress  (Ry/bohr**3)                   (kbar)     P=       -0.68
  -0.00000460  -0.00000000  -0.00000000           -0.68       -0.00       -0.00
  -0.00000000  -0.00000460  -0.00000000           -0.00       -0.68       -0.00
  -0.00000000  -0.00000000  -0.00000460           -0.00       -0.00       -0.68

     Energy error            =      3.8E-05 Ry
     Gradient error          =      0.0E+00 Ry/Bohr
     Cell gradient error     =      6.8E-01 kbar

     number of scf cycles    =   5
     number of bfgs steps    =   4

     enthalpy           old  =     -55.8041856567 Ry
     enthalpy           new  =     -55.8042231922 Ry

     CASE: enthalpy          _new < enthalpy          _old

     new trust radius        =       0.0001952358 bohr
     new conv_thr            =       0.0000000010 Ry

     new unit-cell volume =     76.68144 a.u.^3 (    11.36302 Ang^3 )
     density =      8.16093 g/cm^3

CELL_PARAMETERS (angstrom)
  -1.416265122   1.416265122   1.416265122
   1.416265122  -1.416265122   1.416265122
   1.416265122   1.416265122  -1.416265122

ATOMIC_POSITIONS (angstrom)
Fe               0.0000000000        0.0000000000        0.0000000000


     Message from routine punch:
     Nothing written, as per user request (disk_io='none')
     NEW-OLD atomic charge density approx. for the potential
     New effective cutoffs (rho, wfc):  270.07   27.25

     Check: negative core charge=   -0.000003
     Generating pointlists ...

     total cpu time spent up to now is        4.0 secs

     Self-consistent Calculation

     iteration #  1     ecut=    30.00 Ry     beta= 0.50
     Davidson diagonalization with overlap
     ethr =  1.00E-06,  avg # of iterations =  2.0

     Threshold (ethr) on eigenvalues was too large:
     Diagonalizing with lowered threshold

     Davidson diagonalization with overlap
     ethr =  6.51E-11,  avg # of iterations =  2.7

     total cpu time spent up to now is        4.1 secs

     total energy              =     -55.80422333 Ry
     estimated scf accuracy    <          4.5E-09 Ry

     total magnetization       =     2.23 Bohr mag/cell
     absolute magnetization    =     2.38 Bohr mag/cell

     iteration #  2     ecut=    30.00 Ry     beta= 0.50
     Davidson diagonalization with overlap
     ethr =  5.57E-11,  avg # of iterations =  1.1

     total cpu time spent up to now is        4.2 secs

     total energy              =     -55.80422333 Ry
     estimated scf accuracy    <          1.4E-09 Ry

     total magnetization       =     2.23 Bohr mag/cell
     absolute magnetization    =     2.38 Bohr mag/cell

     iteration #  3     ecut=    30.00 Ry     beta= 0.50
     Davidson diagonalization with overlap
     ethr =  1.77E-11,  avg # of iterations =  1.3

     Magnetic moment per site  (integrated on atomic sphere of radius R)
     atom   1 (R=0.413)  charge=  6.2032  magn=  2.2860

     total cpu time spent up to now is        4.3 secs

     End of self-consistent calculation

 ------ SPIN UP ------------


          k = 0.0000 0.0000 0.0000 (   177 PWs)   bands (ev):

     5.1871  11.1907  11.1907  11.1907  12.3967  12.3967  38.3140  38.3140

          k = 0.1376 0.1376 0.0000 (   188 PWs)   bands (ev):

     6.2963  10.9067  11.1221  11.7788  12.2135  12.4249  33.2767  36.5144

          k = 0.2752 0.2752 0.0000 (   182 PWs)   bands (ev):

     8.3644  10.3699  11.6154  12.3953  12.5185  13.1065  25.6653  33.2118

          k =-0.4128-0.4128-0.0000 (   186 PWs)   bands (ev):

     8.6072  10.1153  12.4666  12.5850  13.8754  14.2233  20.9334  31.8747

          k = 0.2752 0.1376 0.1376 (   179 PWs)   bands (ev):

     8.1044  10.6012  10.7146  12.1281  12.5957  13.0727  29.5086  30.5299

          k = 0.4128 0.2752 0.1376 (   185 PWs)   bands (ev):

     9.1489  10.2341  11.3205  12.3995  12.8882  15.7016  22.8430  27.9384

          k = 0.5503 0.2752 0.2752 (   185 PWs)   bands (ev):

     9.8317  10.4277  10.4277  12.7035  12.7035  20.4391  20.4391  23.0370

          k = 0.2752 0.2752 0.2752 (   186 PWs)   bands (ev):

     9.9186  10.1679  10.1679  12.5268  12.5268  15.6264  26.7375  26.7375

          k = 0.4128 0.4128 0.2752 (   182 PWs)   bands (ev):

     9.8242  10.0598  10.9980  12.5926  12.6115  19.1263  21.4996  25.7535

          k =-0.0000 0.0000 0.2752 (   177 PWs)   bands (ev):

     7.2955  11.2893  11.2893  11.4501  11.7728  12.7975  33.0009  34.5887

          k = 0.0000-0.1376 0.4128 (   186 PWs)   bands (ev):

     9.0245  10.5482  11.0084  11.9838  12.9982  13.9223  26.4208  31.2647

          k =-0.8255-0.2752-0.2752 (   182 PWs)   bands (ev):

     9.1273  10.7193  10.8059  12.1006  13.8070  16.9176  21.1320  29.7947

          k =-0.6879-0.1376-0.2752 (   185 PWs)   bands (ev):

     9.7353   9.7751  11.0144  12.5074  13.2858  17.7138  23.7622  24.6527

          k =-0.0000 0.0000 0.5503 (   196 PWs)   bands (ev):

     9.3295   9.5709  12.3294  12.3294  12.9800  16.5192  27.2852  27.2852

          k =-0.8255-0.1376-0.1376 (   190 PWs)   bands (ev):

     9.0753   9.1850  12.4873  12.7700  13.6718  20.7929  22.1623  25.5592

          k =-0.8255-0.8255-0.8255 (   188 PWs)   bands (ev):

     8.6636   8.6636  13.6050  13.6050  13.6050  23.6305  23.6305  23.6305

 ------ SPIN DOWN ----------


          k = 0.0000 0.0000 0.0000 (   177 PWs)   bands (ev):

     5.2522  13.3660  13.3660  13.3660  15.4276  15.4276  38.0013  38.0013

          k = 0.1376 0.1376 0.0000 (   188 PWs)   bands (ev):

     6.3787  13.0140  13.2359  14.0170  15.1390  15.4621  33.6197  36.4731

          k = 0.2752 0.2752 0.0000 (   182 PWs)   bands (ev):

     8.9693  12.3602  13.0077  15.1624  15.5173  15.5946  26.5545  33.2100

          k =-0.4128-0.4128-0.0000 (   186 PWs)   bands (ev):

     9.9970  12.0546  14.2196  15.2877  15.6958  16.4133  22.4075  31.8219

          k = 0.2752 0.1376 0.1376 (   179 PWs)   bands (ev):

     8.3417  12.6291  12.6735  14.9298  15.2795  15.6893  30.1148  31.0418

          k = 0.4128 0.2752 0.1376 (   185 PWs)   bands (ev):

    10.4264  12.1295  12.7642  15.1695  15.7432  17.4752  23.9274  28.4926

          k = 0.5503 0.2752 0.2752 (   185 PWs)   bands (ev):

    11.5401  12.0720  12.0720  15.4873  15.4873  21.5776  21.5776  23.9375

          k = 0.2752 0.2752 0.2752 (   186 PWs)   bands (ev):

    10.5600  11.9855  11.9855  15.5543  15.5543  17.5428  27.4161  27.4161

          k = 0.4128 0.4128 0.2752 (   182 PWs)   bands (ev):

    11.3326  11.7912  12.3600  15.6102  15.7322  20.2800  22.6432  26.4362

          k =-0.0000 0.0000 0.2752 (   177 PWs)   bands (ev):

     7.4247  13.3963  13.3963  14.0201  14.1618  15.8459  33.3200  35.0858

          k = 0.0000-0.1376 0.4128 (   186 PWs)   bands (ev):

     9.7665  12.6301  13.0514  14.3622  15.3903  16.3605  27.2502  31.8457

          k =-0.8255-0.2752-0.2752 (   182 PWs)   bands (ev):

    10.7246  12.4990  12.8089  14.6094  16.3352  18.1584  22.4621  30.3103

          k =-0.6879-0.1376-0.2752 (   185 PWs)   bands (ev):

    11.2900  11.7778  13.0078  14.8750  15.7665  19.1095  24.7257  25.3705

          k =-0.0000 0.0000 0.5503 (   196 PWs)   bands (ev):

    10.8115  11.7533  14.4965  14.4965  15.3891  17.9538  27.8088  27.8088

          k =-0.8255-0.1376-0.1376 (   190 PWs)   bands (ev):

    11.0609  11.1061  14.7154  15.0081  16.1810  21.5667  22.9462  25.9555

          k =-0.8255-0.8255-0.8255 (   188 PWs)   bands (ev):

    10.6397  10.6397  16.1049  16.1049  16.1049  23.8013  23.8013  23.8013

     the Fermi energy is    13.5382 ev

!    total energy              =     -55.80422333 Ry
     estimated scf accuracy    <          3.7E-10 Ry
     smearing contrib. (-TS)   =       0.00066274 Ry
     internal energy E=F+TS    =     -55.80488607 Ry

     The total energy is F=E-TS. E is the sum of the following terms:
     one-electron contribution =       7.65477452 Ry
     hartree contribution      =       6.50465697 Ry
     xc contribution           =     -26.45157406 Ry
     ewald contribution        =     -43.51274351 Ry

     total magnetization       =     2.23 Bohr mag/cell
     absolute magnetization    =     2.38 Bohr mag/cell

     convergence has been achieved in   3 iterations

     Forces acting on atoms (cartesian axes, Ry/au):

     atom    1 type  1   force =     0.00000000    0.00000000    0.00000000

     Total force =     0.000000     Total SCF correction =     0.000000


     Computing stress (Cartesian axis) and pressure

          total   stress  (Ry/bohr**3)                   (kbar)     P=       -0.61
  -0.00000416   0.00000000   0.00000000           -0.61        0.00        0.00
   0.00000000  -0.00000416   0.00000000            0.00       -0.61        0.00
   0.00000000   0.00000000  -0.00000416            0.00        0.00       -0.61

     Energy error            =      1.4E-07 Ry
     Gradient error          =      0.0E+00 Ry/Bohr
     Cell gradient error     =      6.1E-01 kbar

     number of scf cycles    =   6
     number of bfgs steps    =   5

     enthalpy           old  =     -55.8042231922 Ry
     enthalpy           new  =     -55.8042233298 Ry

     CASE: enthalpy          _new < enthalpy          _old


     WARNING: bfgs curvature condition failed, Theta= 0.884
     new trust radius        =       0.0002928375 bohr
     new conv_thr            =       0.0000000010 Ry

     new unit-cell volume =     76.64298 a.u.^3 (    11.35732 Ang^3 )
     density =      8.16503 g/cm^3

CELL_PARAMETERS (angstrom)
  -1.416028314   1.416028314   1.416028314
   1.416028314  -1.416028314   1.416028314
   1.416028314   1.416028314  -1.416028314

ATOMIC_POSITIONS (angstrom)
Fe               0.0000000000        0.0000000000        0.0000000000


     Message from routine punch:
     Nothing written, as per user request (disk_io='none')
     NEW-OLD atomic charge density approx. for the potential
     New effective cutoffs (rho, wfc):  270.16   27.26

     Check: negative core charge=   -0.000003
     Generating pointlists ...

     total cpu time spent up to now is        4.4 secs

     Self-consistent Calculation

     iteration #  1     ecut=    30.00 Ry     beta= 0.50
     Davidson diagonalization with overlap
     ethr =  1.00E-06,  avg # of iterations =  2.0

     Threshold (ethr) on eigenvalues was too large:
     Diagonalizing with lowered threshold

     Davidson diagonalization with overlap
     ethr =  1.35E-10,  avg # of iterations =  2.5

     total cpu time spent up to now is        4.6 secs

     total energy              =     -55.80422331 Ry
     estimated scf accuracy    <       0.00000001 Ry

     total magnetization       =     2.23 Bohr mag/cell
     absolute magnetization    =     2.38 Bohr mag/cell

     iteration #  2     ecut=    30.00 Ry     beta= 0.50
     Davidson diagonalization with overlap
     ethr =  1.30E-10,  avg # of iterations =  1.2

     total cpu time spent up to now is        4.6 secs

     total energy              =     -55.80422331 Ry
     estimated scf accuracy    <          4.1E-09 Ry

     total magnetization       =     2.23 Bohr mag/cell
     absolute magnetization    =     2.38 Bohr mag/cell

     iteration #  3     ecut=    30.00 Ry     beta= 0.50
     Davidson diagonalization with overlap
     ethr =  5.16E-11,  avg # of iterations =  1.2

     total cpu time spent up to now is        4.7 secs

     total energy              =     -55.80422331 Ry
     estimated scf accuracy    <          1.3E-09 Ry

     total magnetization       =     2.23 Bohr mag/cell
     absolute magnetization    =     2.38 Bohr mag/cell

     iteration #  4     ecut=    30.00 Ry     beta= 0.50
     Davidson diagonalization with overlap
     ethr =  1.62E-11,  avg # of iterations =  1.9

     Magnetic moment per site  (integrated on atomic sphere of radius R)
     atom   1 (R=0.413)  charge=  6.2037  magn=  2.2856

     total cpu time spent up to now is        4.8 secs

     End of self-consistent calculation

 ------ SPIN UP ------------


          k = 0.0000 0.0000 0.0000 (   177 PWs)   bands (ev):

     5.1931  11.1987  11.1987  11.1987  12.4057  12.4057  38.3275  38.3275

          k = 0.1376 0.1376 0.0000 (   188 PWs)   bands (ev):

     6.3026  10.9144  11.1300  11.7872  12.2224  12.4340  33.2912  36.5284

          k = 0.2752 0.2752 0.0000 (   182 PWs)   bands (ev):

     8.3709  10.3772  11.6237  12.4042  12.5276  13.1160  25.6793  33.2252

          k =-0.4128-0.4128-0.0000 (   186 PWs)   bands (ev):

     8.6134  10.1224  12.4757  12.5943  13.8854  14.2321  20.9469  31.8876

          k = 0.2752 0.1376 0.1376 (   179 PWs)   bands (ev):

     8.1112  10.6087  10.7222  12.1369  12.6050  13.0821  29.5226  30.5450

          k = 0.4128 0.2752 0.1376 (   185 PWs)   bands (ev):

     9.1555  10.2413  11.3285  12.4085  12.8976  15.7121  22.8564  27.9526

          k = 0.5504 0.2752 0.2752 (   185 PWs)   bands (ev):

     9.8387  10.4350  10.4350  12.7127  12.7127  20.4510  20.4510  23.0511

          k = 0.2752 0.2752 0.2752 (   186 PWs)   bands (ev):

     9.9259  10.1751  10.1751  12.5360  12.5360  15.6372  26.7509  26.7509

          k = 0.4128 0.4128 0.2752 (   182 PWs)   bands (ev):

     9.8312  10.0669  11.0058  12.6018  12.6208  19.1378  21.5127  25.7667

          k =-0.0000 0.0000 0.2752 (   177 PWs)   bands (ev):

     7.3021  11.2973  11.2973  11.4583  11.7812  12.8069  33.0144  34.6048

          k =-0.0000-0.1376 0.4128 (   186 PWs)   bands (ev):

     9.0313  10.5556  11.0162  11.9924  13.0076  13.9323  26.4348  31.2803

          k =-0.8256-0.2752-0.2752 (   182 PWs)   bands (ev):

     9.1338  10.7269  10.8136  12.1093  13.8170  16.9281  21.1454  29.8098

          k =-0.6880-0.1376-0.2752 (   185 PWs)   bands (ev):

     9.7422   9.7819  11.0222  12.5164  13.2954  17.7251  23.7753  24.6667

          k =-0.0000 0.0000 0.5504 (   196 PWs)   bands (ev):

     9.3362   9.5776  12.3382  12.3382  12.9893  16.5301  27.2995  27.2995

          k =-0.8256-0.1376-0.1376 (   190 PWs)   bands (ev):

     9.0816   9.1914  12.4963  12.7791  13.6817  20.8048  22.1751  25.5726

          k =-0.8256-0.8256-0.8256 (   188 PWs)   bands (ev):

     8.6696   8.6696  13.6148  13.6148  13.6148  23.6429  23.6429  23.6429

 ------ SPIN DOWN ----------


          k = 0.0000 0.0000 0.0000 (   177 PWs)   bands (ev):

     5.2585  13.3736  13.3736  13.3736  15.4363  15.4363  38.0153  38.0153

          k = 0.1376 0.1376 0.0000 (   188 PWs)   bands (ev):

     6.3854  13.0213  13.2434  14.0250  15.1474  15.4708  33.6345  36.4876

          k = 0.2752 0.2752 0.0000 (   182 PWs)   bands (ev):

     8.9763  12.3671  13.0155  15.1710  15.5263  15.6034  26.5688  33.2239

          k =-0.4128-0.4128-0.0000 (   186 PWs)   bands (ev):

    10.0032  12.0613  14.2288  15.2964  15.7047  16.4229  22.4210  31.8353

          k = 0.2752 0.1376 0.1376 (   179 PWs)   bands (ev):

     8.3490  12.6362  12.6806  14.9382  15.2884  15.6982  30.1291  31.0570

          k = 0.4128 0.2752 0.1376 (   185 PWs)   bands (ev):

    10.4331  12.1363  12.7720  15.1781  15.7522  17.4855  23.9410  28.5069

          k = 0.5504 0.2752 0.2752 (   185 PWs)   bands (ev):

    11.5467  12.0791  12.0791  15.4961  15.4961  21.5898  21.5898  23.9517

          k = 0.2752 0.2752 0.2752 (   186 PWs)   bands (ev):

    10.5676  11.9923  11.9923  15.5631  15.5631  17.5532  27.4299  27.4299

          k = 0.4128 0.4128 0.2752 (   182 PWs)   bands (ev):

    11.3393  11.7979  12.3675  15.6190  15.7411  20.2916  22.6563  26.4497

          k =-0.0000 0.0000 0.2752 (   177 PWs)   bands (ev):

     7.4317  13.4039  13.4039  14.0280  14.1696  15.8549  33.3341  35.1021

          k =-0.0000-0.1376 0.4128 (   186 PWs)   bands (ev):

     9.7737  12.6372  13.0588  14.3703  15.3992  16.3702  27.2646  31.8616

          k =-0.8256-0.2752-0.2752 (   182 PWs)   bands (ev):

    10.7310  12.5065  12.8161  14.6177  16.3448  18.1692  22.4755  30.3257

          k =-0.6880-0.1376-0.2752 (   185 PWs)   bands (ev):

    11.2969  11.7843  13.0152  14.8835  15.7756  19.1209  24.7391  25.3847

          k =-0.0000 0.0000 0.5504 (   196 PWs)   bands (ev):

    10.8182  11.7596  14.5048  14.5048  15.3979  17.9647  27.8234  27.8234

          k =-0.8256-0.1376-0.1376 (   190 PWs)   bands (ev):

    11.0670  11.1122  14.7239  15.0168  16.1904  21.5789  22.9593  25.9693

          k =-0.8256-0.8256-0.8256 (   188 PWs)   bands (ev):

    10.6453  10.6453  16.1143  16.1143  16.1143  23.8141  23.8141  23.8141

     the Fermi energy is    13.5474 ev

!    total energy              =     -55.80422331 Ry
     estimated scf accuracy    <          3.1E-11 Ry
     smearing contrib. (-TS)   =       0.00066397 Ry
     internal energy E=F+TS    =     -55.80488728 Ry

     The total energy is F=E-TS. E is the sum of the following terms:
     one-electron contribution =       7.66501870 Ry
     hartree contribution      =       6.50202572 Ry
     xc contribution           =     -26.45191139 Ry
     ewald contribution        =     -43.52002031 Ry

     total magnetization       =     2.23 Bohr mag/cell
     absolute magnetization    =     2.38 Bohr mag/cell

     convergence has been achieved in   4 iterations

     Forces acting on atoms (cartesian axes, Ry/au):

     atom    1 type  1   force =     0.00000000    0.00000000    0.00000000

     Total force =     0.000000     Total SCF correction =     0.000000


     Computing stress (Cartesian axis) and pressure

          total   stress  (Ry/bohr**3)                   (kbar)     P=        0.58
   0.00000396   0.00000000  -0.00000000            0.58        0.00       -0.00
   0.00000000   0.00000396  -0.00000000            0.00        0.58       -0.00
   0.00000000  -0.00000000   0.00000396            0.00       -0.00        0.58

     Energy error            =      1.6E-08 Ry
     Gradient error          =      0.0E+00 Ry/Bohr
     Cell gradient error     =      5.8E-01 kbar

     number of scf cycles    =   7
     number of bfgs steps    =   6

     enthalpy           old  =     -55.8042233298 Ry
     enthalpy           new  =     -55.8042233140 Ry

     CASE: enthalpy          _new > enthalpy          _old

     new trust radius        =       0.0001332095 bohr
     new conv_thr            =       0.0000000010 Ry

     new unit-cell volume =     76.66394 a.u.^3 (    11.36042 Ang^3 )
     density =      8.16279 g/cm^3

CELL_PARAMETERS (angstrom)
  -1.416157391   1.416157391   1.416157391
   1.416157391  -1.416157391   1.416157391
   1.416157391   1.416157391  -1.416157391

ATOMIC_POSITIONS (angstrom)
Fe               0.0000000000        0.0000000000        0.0000000000


     Message from routine punch:
     Nothing written, as per user request (disk_io='none')
     NEW-OLD atomic charge density approx. for the potential
     New effective cutoffs (rho, wfc):  270.11   27.26

     Check: negative core charge=   -0.000003
     Generating pointlists ...

     total cpu time spent up to now is        4.9 secs

     Self-consistent Calculation

     iteration #  1     ecut=    30.00 Ry     beta= 0.50
     Davidson diagonalization with overlap
     ethr =  1.00E-06,  avg # of iterations =  2.0

     Threshold (ethr) on eigenvalues was too large:
     Diagonalizing with lowered threshold

     Davidson diagonalization with overlap
     ethr =  3.20E-11,  avg # of iterations =  2.7

     total cpu time spent up to now is        5.1 secs

     total energy              =     -55.80422335 Ry
     estimated scf accuracy    <          2.4E-09 Ry

     total magnetization       =     2.23 Bohr mag/cell
     absolute magnetization    =     2.38 Bohr mag/cell

     iteration #  2     ecut=    30.00 Ry     beta= 0.50
     Davidson diagonalization with overlap
     ethr =  2.98E-11,  avg # of iterations =  1.2

     Magnetic moment per site  (integrated on atomic sphere of radius R)
     atom   1 (R=0.413)  charge=  6.2034  magn=  2.2857

     total cpu time spent up to now is        5.2 secs

     End of self-consistent calculation

 ------ SPIN UP ------------


          k = 0.0000 0.0000 0.0000 (   177 PWs)   bands (ev):

     5.1897  11.1944  11.1944  11.1944  12.4008  12.4008  38.3200  38.3200

          k = 0.1376 0.1376 0.0000 (   188 PWs)   bands (ev):

     6.2990  10.9102  11.1257  11.7826  12.2176  12.4290  33.2832  36.5206

          k = 0.2752 0.2752 0.0000 (   182 PWs)   bands (ev):

     8.3673  10.3733  11.6191  12.3994  12.5227  13.1109  25.6716  33.2177

          k =-0.4128-0.4128-0.0000 (   186 PWs)   bands (ev):

     8.6100  10.1186  12.4708  12.5893  13.8800  14.2272  20.9396  31.8804

          k = 0.2752 0.1376 0.1376 (   179 PWs)   bands (ev):

     8.1074  10.6047  10.7180  12.1322  12.6000  13.0770  29.5148  30.5367

          k = 0.4128 0.2752 0.1376 (   185 PWs)   bands (ev):

     9.1519  10.2374  11.3241  12.4036  12.8925  15.7063  22.8490  27.9448

          k = 0.5504 0.2752 0.2752 (   185 PWs)   bands (ev):

     9.8349  10.4310  10.4310  12.7077  12.7077  20.4444  20.4444  23.0434

          k = 0.2752 0.2752 0.2752 (   186 PWs)   bands (ev):

     9.9219  10.1712  10.1712  12.5310  12.5310  15.6313  26.7435  26.7435

          k = 0.4128 0.4128 0.2752 (   182 PWs)   bands (ev):

     9.8274  10.0630  11.0016  12.5968  12.6158  19.1315  21.5055  25.7594

          k =-0.0000 0.0000 0.2752 (   177 PWs)   bands (ev):

     7.2984  11.2930  11.2930  11.4539  11.7767  12.8018  33.0069  34.5959

          k =-0.0000-0.1376 0.4128 (   186 PWs)   bands (ev):

     9.0275  10.5516  11.0120  11.9878  13.0025  13.9268  26.4271  31.2717

          k =-0.8256-0.2752-0.2752 (   182 PWs)   bands (ev):

     9.1302  10.7227  10.8094  12.1046  13.8116  16.9223  21.1381  29.8015

          k =-0.6880-0.1376-0.2752 (   185 PWs)   bands (ev):

     9.7384   9.7782  11.0180  12.5115  13.2902  17.7189  23.7681  24.6590

          k =-0.0000 0.0000 0.5504 (   196 PWs)   bands (ev):

     9.3325   9.5740  12.3335  12.3335  12.9843  16.5241  27.2916  27.2916

          k =-0.8256-0.1376-0.1376 (   190 PWs)   bands (ev):

     9.0782   9.1879  12.4914  12.7742  13.6763  20.7982  22.1680  25.5652

          k =-0.8256-0.8256-0.8256 (   188 PWs)   bands (ev):

     8.6663   8.6663  13.6095  13.6095  13.6095  23.6360  23.6360  23.6360

 ------ SPIN DOWN ----------


          k = 0.0000 0.0000 0.0000 (   177 PWs)   bands (ev):

     5.2552  13.3692  13.3692  13.3692  15.4313  15.4313  38.0078  38.0078

          k = 0.1376 0.1376 0.0000 (   188 PWs)   bands (ev):

     6.3818  13.0171  13.2391  14.0204  15.1426  15.4658  33.6265  36.4798

          k = 0.2752 0.2752 0.0000 (   182 PWs)   bands (ev):

     8.9725  12.3632  13.0112  15.1660  15.5211  15.5984  26.5610  33.2165

          k =-0.4128-0.4128-0.0000 (   186 PWs)   bands (ev):

     9.9998  12.0575  14.2239  15.2914  15.6996  16.4174  22.4135  31.8281

          k = 0.2752 0.1376 0.1376 (   179 PWs)   bands (ev):

     8.3451  12.6321  12.6765  14.9334  15.2833  15.6931  30.1213  31.0487

          k = 0.4128 0.2752 0.1376 (   185 PWs)   bands (ev):

    10.4294  12.1325  12.7677  15.1732  15.7471  17.4797  23.9335  28.4991

          k = 0.5504 0.2752 0.2752 (   185 PWs)   bands (ev):

    11.5430  12.0751  12.0751  15.4910  15.4910  21.5831  21.5831  23.9439

          k = 0.2752 0.2752 0.2752 (   186 PWs)   bands (ev):

    10.5635  11.9884  11.9884  15.5581  15.5581  17.5473  27.4224  27.4224

          k = 0.4128 0.4128 0.2752 (   182 PWs)   bands (ev):

    11.3356  11.7941  12.3633  15.6140  15.7360  20.2852  22.6491  26.4424

          k =-0.0000 0.0000 0.2752 (   177 PWs)   bands (ev):

     7.4280  13.3995  13.3995  14.0234  14.1651  15.8498  33.3265  35.0933

          k =-0.0000-0.1376 0.4128 (   186 PWs)   bands (ev):

     9.7698  12.6332  13.0546  14.3656  15.3941  16.3647  27.2568  31.8530

          k =-0.8256-0.2752-0.2752 (   182 PWs)   bands (ev):

    10.7275  12.5024  12.8120  14.6130  16.3393  18.1632  22.4681  30.3174

          k =-0.6880-0.1376-0.2752 (   185 PWs)   bands (ev):

    11.2931  11.7806  13.0110  14.8786  15.7704  19.1146  24.7318  25.3770

          k =-0.0000 0.0000 0.5504 (   196 PWs)   bands (ev):

    10.8145  11.7561  14.5001  14.5001  15.3928  17.9587  27.8155  27.8155

          k =-0.8256-0.1376-0.1376 (   190 PWs)   bands (ev):

    11.0636  11.1088  14.7191  15.0118  16.1850  21.5722  22.9522  25.9618

          k =-0.8256-0.8256-0.8256 (   188 PWs)   bands (ev):

    10.6422  10.6422  16.1089  16.1089  16.1089  23.8072  23.8072  23.8072

     the Fermi energy is    13.5423 ev

!    total energy              =     -55.80422336 Ry
     estimated scf accuracy    <          9.3E-10 Ry
     smearing contrib. (-TS)   =       0.00066365 Ry
     internal energy E=F+TS    =     -55.80488701 Ry

     The total energy is F=E-TS. E is the sum of the following terms:
     one-electron contribution =       7.65940199 Ry
     hartree contribution      =       6.50349965 Ry
     xc contribution           =     -26.45173499 Ry
     ewald contribution        =     -43.51605365 Ry

     total magnetization       =     2.23 Bohr mag/cell
     absolute magnetization    =     2.38 Bohr mag/cell

     convergence has been achieved in   2 iterations

     Forces acting on atoms (cartesian axes, Ry/au):

     atom    1 type  1   force =     0.00000000    0.00000000    0.00000000

     Total force =     0.000000     Total SCF correction =     0.000000


     Computing stress (Cartesian axis) and pressure

          total   stress  (Ry/bohr**3)                   (kbar)     P=        0.16
   0.00000107   0.00000000  -0.00000000            0.16        0.00       -0.00
   0.00000000   0.00000107  -0.00000000            0.00        0.16       -0.00
  -0.00000000  -0.00000000   0.00000107           -0.00       -0.00        0.16

     Energy error            =      2.6E-08 Ry
     Gradient error          =      0.0E+00 Ry/Bohr
     Cell gradient error     =      1.6E-01 kbar

     bfgs converged in   8 scf cycles and   6 bfgs steps
     (criteria: energy <  1.0E-04 Ry, force <  1.0E-03 Ry/Bohr, cell <  5.0E-01 kbar)

     End of BFGS Geometry Optimization

     Final enthalpy           =     -55.8042233554 Ry

     File /home/bond/Work/Lab4/1A/Fe_bcc_nk_6_relax/pwscf.bfgs deleted, as requested
Begin final coordinates
     new unit-cell volume =     76.66394 a.u.^3 (    11.36042 Ang^3 )
     density =      8.16279 g/cm^3

CELL_PARAMETERS (angstrom)
  -1.416157391   1.416157391   1.416157391
   1.416157391  -1.416157391   1.416157391
   1.416157391   1.416157391  -1.416157391

ATOMIC_POSITIONS (angstrom)
Fe               0.0000000000        0.0000000000        0.0000000000
End final coordinates


     Message from routine punch:
     Nothing written, as per user request (disk_io='none')

     Final scf calculation at the relaxed structure.
     The G-vectors are recalculated for the final unit cell
     Results may differ from those at the preceding step.

     Parallelization info
     --------------------
     sticks:   dense  smooth     PW     G-vecs:    dense   smooth      PW
     Min         241      98     45                 3349      860     277
     Max         242      99     46                 3350      861     278
     Sum         483     197     91                 6699     1721     555

     Using Slab Decomposition



     bravais-lattice index     =            0
     lattice parameter (alat)  =       4.4187  a.u.
     unit-cell volume          =      76.6639 (a.u.)^3
     number of atoms/cell      =            1
     number of atomic types    =            1
     number of electrons       =         8.00
     number of Kohn-Sham states=            8
     kinetic-energy cutoff     =      30.0000  Ry
     charge density cutoff     =     300.0000  Ry
     scf convergence threshold =      1.0E-09
     mixing beta               =       0.5000
     number of iterations used =            8  plain     mixing
     press convergence thresh. =      5.0E-01
     Exchange-correlation=  SLA  PW   PBE  PBE
                           (   1   4   3   4   0   0   0)

     celldm(1)=   4.418687  celldm(2)=   0.000000  celldm(3)=   0.000000
     celldm(4)=   0.000000  celldm(5)=   0.000000  celldm(6)=   0.000000

     crystal axes: (cart. coord. in units of alat)
               a(1) = (  -0.605644   0.605644   0.605644 )  
               a(2) = (   0.605644  -0.605644   0.605644 )  
               a(3) = (   0.605644   0.605644  -0.605644 )  

     reciprocal axes: (cart. coord. in units 2 pi/alat)
               b(1) = (  0.000000  0.825568  0.825568 )  
               b(2) = (  0.825568  0.000000  0.825568 )  
               b(3) = (  0.825568  0.825568  0.000000 )  


     PseudoPot. # 1 for Fe read from file:
     /home/bond/Software/QE/qe-7.4.1/pseudo/Fe.pbe-nd-rrkjus.UPF
     MD5 check sum: 398036227a04b607635f6f5e8dfd8242
     Pseudo is Ultrasoft + core correction, Zval =  8.0
     Generated by new atomic code, or converted to UPF format
     Using radial grid of  957 points,  6 beta functions with: 
                l(1) =   0
                l(2) =   0
                l(3) =   1
                l(4) =   1
                l(5) =   2
                l(6) =   2
     Q(r) pseudized with 0 coefficients 


     atomic species   valence    mass     pseudopotential
     Fe                8.00    55.84500     Fe( 1.00)

     Starting magnetic structure 
     atomic species   magnetization
     Fe              0.368

     48 Sym. Ops., with inversion, found



   Cartesian axes

     site n.     atom                  positions (alat units)
         1        Fe     tau(   1) = (   0.0000000   0.0000000   0.0000000  )

     number of k points=    16  Methfessel-Paxton smearing, width (Ry)=  0.0200
                       cart. coord. in units 2pi/alat
        k(    1) = (   0.0000000   0.0000000   0.0000000), wk =   0.0046296
        k(    2) = (   0.1375947   0.1375947   0.0000000), wk =   0.0555556
        k(    3) = (   0.2751893   0.2751893   0.0000000), wk =   0.0555556
        k(    4) = (  -0.4127840  -0.4127840  -0.0000000), wk =   0.0277778
        k(    5) = (   0.2751893   0.1375947   0.1375947), wk =   0.1111111
        k(    6) = (   0.4127840   0.2751893   0.1375947), wk =   0.2222222
        k(    7) = (   0.5503787   0.2751893   0.2751893), wk =   0.0370370
        k(    8) = (   0.2751893   0.2751893   0.2751893), wk =   0.0370370
        k(    9) = (   0.4127840   0.4127840   0.2751893), wk =   0.0555556
        k(   10) = (  -0.0000000   0.0000000   0.2751893), wk =   0.0277778
        k(   11) = (  -0.0000000  -0.1375947   0.4127840), wk =   0.1111111
        k(   12) = (  -0.8255680  -0.2751893  -0.2751893), wk =   0.0555556
        k(   13) = (  -0.6879734  -0.1375947  -0.2751893), wk =   0.1111111
        k(   14) = (  -0.0000000   0.0000000   0.5503787), wk =   0.0277778
        k(   15) = (  -0.8255680  -0.1375947  -0.1375947), wk =   0.0555556
        k(   16) = (  -0.8255680  -0.8255680  -0.8255680), wk =   0.0046296

     Dense  grid:     6699 G-vectors     FFT dimensions: (  25,  25,  25)

     Smooth grid:     1721 G-vectors     FFT dimensions: (  18,  18,  18)

     Estimated max dynamical RAM per process >      16.87 MB

     Estimated total dynamical RAM >      33.75 MB

     Check: negative core charge=   -0.000004
     Generating pointlists ...

     Initial potential from superposition of free atoms

     starting charge       7.9994, renormalised to       8.0000
     Starting wfcs are    6 randomized atomic wfcs +    2 random wfcs

     total cpu time spent up to now is        5.4 secs

     Self-consistent Calculation

     iteration #  1     ecut=    30.00 Ry     beta= 0.50
     Davidson diagonalization with overlap
     c_bands:  1 eigenvalues not converged
     c_bands:  1 eigenvalues not converged
     c_bands:  1 eigenvalues not converged
     c_bands:  1 eigenvalues not converged
     c_bands:  1 eigenvalues not converged
     c_bands:  3 eigenvalues not converged
     c_bands:  1 eigenvalues not converged
     c_bands:  1 eigenvalues not converged
     c_bands:  1 eigenvalues not converged
     c_bands:  1 eigenvalues not converged
     c_bands:  2 eigenvalues not converged
     ethr =  1.00E-06,  avg # of iterations = 17.8

     total cpu time spent up to now is        5.8 secs

     total energy              =     -55.67567803 Ry
     estimated scf accuracy    <       0.35844560 Ry

     total magnetization       =     2.20 Bohr mag/cell
     absolute magnetization    =     2.20 Bohr mag/cell

     iteration #  2     ecut=    30.00 Ry     beta= 0.50
     Davidson diagonalization with overlap
     ethr =  4.48E-03,  avg # of iterations =  1.9

     total cpu time spent up to now is        5.9 secs

     total energy              =     -55.78107548 Ry
     estimated scf accuracy    <       0.08969678 Ry

     total magnetization       =     2.38 Bohr mag/cell
     absolute magnetization    =     2.39 Bohr mag/cell

     iteration #  3     ecut=    30.00 Ry     beta= 0.50
     Davidson diagonalization with overlap
     ethr =  1.12E-03,  avg # of iterations =  1.0

     total cpu time spent up to now is        6.0 secs

     total energy              =     -55.80290188 Ry
     estimated scf accuracy    <       0.00159467 Ry

     total magnetization       =     2.23 Bohr mag/cell
     absolute magnetization    =     2.28 Bohr mag/cell

     iteration #  4     ecut=    30.00 Ry     beta= 0.50
     Davidson diagonalization with overlap
     ethr =  1.99E-05,  avg # of iterations =  2.2

     total cpu time spent up to now is        6.1 secs

     total energy              =     -55.80466371 Ry
     estimated scf accuracy    <       0.00011478 Ry

     total magnetization       =     2.22 Bohr mag/cell
     absolute magnetization    =     2.35 Bohr mag/cell

     iteration #  5     ecut=    30.00 Ry     beta= 0.50
     Davidson diagonalization with overlap
     ethr =  1.43E-06,  avg # of iterations =  2.7

     total cpu time spent up to now is        6.2 secs

     total energy              =     -55.80474964 Ry
     estimated scf accuracy    <       0.00005731 Ry

     total magnetization       =     2.22 Bohr mag/cell
     absolute magnetization    =     2.37 Bohr mag/cell

     iteration #  6     ecut=    30.00 Ry     beta= 0.50
     Davidson diagonalization with overlap
     ethr =  7.16E-07,  avg # of iterations =  1.8

     total cpu time spent up to now is        6.4 secs

     total energy              =     -55.80477033 Ry
     estimated scf accuracy    <       0.00000184 Ry

     total magnetization       =     2.23 Bohr mag/cell
     absolute magnetization    =     2.38 Bohr mag/cell

     iteration #  7     ecut=    30.00 Ry     beta= 0.50
     Davidson diagonalization with overlap
     ethr =  2.30E-08,  avg # of iterations =  5.0

     total cpu time spent up to now is        6.5 secs

     total energy              =     -55.80477448 Ry
     estimated scf accuracy    <       0.00000039 Ry

     total magnetization       =     2.23 Bohr mag/cell
     absolute magnetization    =     2.38 Bohr mag/cell

     iteration #  8     ecut=    30.00 Ry     beta= 0.50
     Davidson diagonalization with overlap
     ethr =  4.86E-09,  avg # of iterations =  3.2

     total cpu time spent up to now is        6.6 secs

     total energy              =     -55.80477485 Ry
     estimated scf accuracy    <       0.00000010 Ry

     total magnetization       =     2.23 Bohr mag/cell
     absolute magnetization    =     2.38 Bohr mag/cell

     iteration #  9     ecut=    30.00 Ry     beta= 0.50
     Davidson diagonalization with overlap
     ethr =  1.21E-09,  avg # of iterations =  2.7

     total cpu time spent up to now is        6.7 secs

     total energy              =     -55.80477491 Ry
     estimated scf accuracy    <          1.3E-09 Ry

     total magnetization       =     2.23 Bohr mag/cell
     absolute magnetization    =     2.38 Bohr mag/cell

     iteration # 10     ecut=    30.00 Ry     beta= 0.50
     Davidson diagonalization with overlap
     ethr =  1.61E-11,  avg # of iterations =  6.4

     Magnetic moment per site  (integrated on atomic sphere of radius R)
     atom   1 (R=0.413)  charge=  6.2039  magn=  2.2859

     total cpu time spent up to now is        6.9 secs

     End of self-consistent calculation

 ------ SPIN UP ------------


          k = 0.0000 0.0000 0.0000 (   201 PWs)   bands (ev):

     5.1910  11.1925  11.1925  11.1925  12.3985  12.3985  38.3190  38.3190

          k = 0.1376 0.1376 0.0000 (   209 PWs)   bands (ev):

     6.3003  10.9079  11.1237  11.7801  12.2153  12.4266  33.2820  36.5207

          k = 0.2752 0.2752 0.0000 (   214 PWs)   bands (ev):

     8.3670  10.3710  11.6182  12.3969  12.5199  13.1080  25.6714  33.2184

          k =-0.4128-0.4128-0.0000 (   214 PWs)   bands (ev):

     8.6093  10.1163  12.4684  12.5861  13.8770  14.2284  20.9390  31.8815

          k = 0.2752 0.1376 0.1376 (   208 PWs)   bands (ev):

     8.1081  10.6025  10.7162  12.1297  12.5974  13.0747  29.5132  30.5365

          k = 0.4128 0.2752 0.1376 (   213 PWs)   bands (ev):

     9.1508  10.2353  11.3228  12.4012  12.8899  15.7053  22.8488  27.9448

          k = 0.5504 0.2752 0.2752 (   210 PWs)   bands (ev):

     9.8332  10.4296  10.4296  12.7053  12.7053  20.4442  20.4442  23.0440

          k = 0.2752 0.2752 0.2752 (   216 PWs)   bands (ev):

     9.9219  10.1690  10.1690  12.5282  12.5282  15.6297  26.7433  26.7433

          k = 0.4128 0.4128 0.2752 (   214 PWs)   bands (ev):

     9.8258  10.0610  11.0003  12.5940  12.6129  19.1310  21.5052  25.7591

          k =-0.0000 0.0000 0.2752 (   213 PWs)   bands (ev):

     7.2994  11.2904  11.2904  11.4517  11.7739  12.7993  33.0041  34.5923

          k =-0.0000-0.1376 0.4128 (   215 PWs)   bands (ev):

     9.0273  10.5498  11.0096  11.9853  12.9998  13.9254  26.4268  31.2718

          k =-0.8256-0.2752-0.2752 (   208 PWs)   bands (ev):

     9.1292  10.7215  10.8074  12.1022  13.8089  16.9226  21.1375  29.8021

          k =-0.6880-0.1376-0.2752 (   215 PWs)   bands (ev):

     9.7375   9.7762  11.0156  12.5092  13.2876  17.7188  23.7678  24.6592

          k =-0.0000 0.0000 0.5504 (   212 PWs)   bands (ev):

     9.3318   9.5725  12.3312  12.3312  12.9818  16.5242  27.2925  27.2925

          k =-0.8256-0.1376-0.1376 (   220 PWs)   bands (ev):

     9.0763   9.1865  12.4891  12.7717  13.6734  20.7986  22.1686  25.5663

          k =-0.8256-0.8256-0.8256 (   236 PWs)   bands (ev):

     8.6639   8.6639  13.6063  13.6063  13.6063  23.6374  23.6374  23.6374

 ------ SPIN DOWN ----------


          k = 0.0000 0.0000 0.0000 (   201 PWs)   bands (ev):

     5.2568  13.3677  13.3677  13.3677  15.4289  15.4289  38.0074  38.0074

          k = 0.1376 0.1376 0.0000 (   209 PWs)   bands (ev):

     6.3834  13.0152  13.2374  14.0182  15.1404  15.4634  33.6256  36.4804

          k = 0.2752 0.2752 0.0000 (   214 PWs)   bands (ev):

     8.9734  12.3613  13.0099  15.1635  15.5184  15.5953  26.5608  33.2175

          k =-0.4128-0.4128-0.0000 (   214 PWs)   bands (ev):

     9.9997  12.0556  14.2253  15.2889  15.6957  16.4145  22.4129  31.8293

          k = 0.2752 0.1376 0.1376 (   208 PWs)   bands (ev):

     8.3464  12.6301  12.6750  14.9309  15.2809  15.6905  30.1201  31.0489

          k = 0.4128 0.2752 0.1376 (   213 PWs)   bands (ev):

    10.4292  12.1307  12.7671  15.1708  15.7440  17.4779  23.9333  28.4995

          k = 0.5504 0.2752 0.2752 (   210 PWs)   bands (ev):

    11.5419  12.0743  12.0743  15.4885  15.4885  21.5825  21.5825  23.9448

          k = 0.2752 0.2752 0.2752 (   216 PWs)   bands (ev):

    10.5644  11.9865  11.9865  15.5551  15.5551  17.5453  27.4222  27.4222

          k = 0.4128 0.4128 0.2752 (   214 PWs)   bands (ev):

    11.3345  11.7924  12.3628  15.6110  15.7327  20.2844  22.6488  26.4421

          k =-0.0000 0.0000 0.2752 (   213 PWs)   bands (ev):

     7.4295  13.3971  13.3971  14.0208  14.1630  15.8470  33.3242  35.0902

          k =-0.0000-0.1376 0.4128 (   215 PWs)   bands (ev):

     9.7706  12.6317  13.0525  14.3634  15.3915  16.3623  27.2565  31.8532

          k =-0.8256-0.2752-0.2752 (   208 PWs)   bands (ev):

    10.7270  12.5021  12.8103  14.6106  16.3367  18.1627  22.4677  30.3181

          k =-0.6880-0.1376-0.2752 (   215 PWs)   bands (ev):

    11.2930  11.7788  13.0089  14.8767  15.7679  19.1140  24.7315  25.3776

          k =-0.0000 0.0000 0.5504 (   212 PWs)   bands (ev):

    10.8147  11.7549  14.4983  14.4983  15.3906  17.9583  27.8164  27.8164

          k =-0.8256-0.1376-0.1376 (   220 PWs)   bands (ev):

    11.0618  11.1078  14.7170  15.0096  16.1821  21.5727  22.9528  25.9631

          k =-0.8256-0.8256-0.8256 (   236 PWs)   bands (ev):

    10.6397  10.6397  16.1055  16.1055  16.1055  23.8089  23.8089  23.8089

     the Fermi energy is    13.5395 ev

!    total energy              =     -55.80477492 Ry
     estimated scf accuracy    <          3.6E-11 Ry
     smearing contrib. (-TS)   =       0.00066312 Ry
     internal energy E=F+TS    =     -55.80543804 Ry

     The total energy is F=E-TS. E is the sum of the following terms:
     one-electron contribution =       7.65881945 Ry
     hartree contribution      =       6.50280388 Ry
     xc contribution           =     -26.45100772 Ry
     ewald contribution        =     -43.51605365 Ry

     total magnetization       =     2.23 Bohr mag/cell
     absolute magnetization    =     2.38 Bohr mag/cell

     convergence has been achieved in  10 iterations

     Forces acting on atoms (cartesian axes, Ry/au):

     atom    1 type  1   force =     0.00000000    0.00000000    0.00000000

     Total force =     0.000000     Total SCF correction =     0.000000


     Computing stress (Cartesian axis) and pressure

          total   stress  (Ry/bohr**3)                   (kbar)     P=       -0.04
  -0.00000029   0.00000000   0.00000000           -0.04        0.00        0.00
   0.00000000  -0.00000029   0.00000000            0.00       -0.04        0.00
   0.00000000   0.00000000  -0.00000029            0.00        0.00       -0.04

     Message from routine punch:
     Nothing written, as per user request (disk_io='none')

     init_run     :      0.47s CPU      0.50s WALL (       2 calls)
     electrons    :      4.55s CPU      5.05s WALL (       9 calls)
     update_pot   :      0.06s CPU      0.06s WALL (       7 calls)
     forces       :      0.19s CPU      0.19s WALL (       9 calls)
     stress       :      1.01s CPU      1.02s WALL (       9 calls)

     Called by init_run:
     wfcinit      :      0.03s CPU      0.04s WALL (       2 calls)
     potinit      :      0.13s CPU      0.14s WALL (       2 calls)
     hinit0       :      0.28s CPU      0.28s WALL (       2 calls)

     Called by electrons:
     c_bands      :      2.54s CPU      2.93s WALL (      56 calls)
     sum_band     :      1.21s CPU      1.28s WALL (      56 calls)
     v_of_rho     :      0.36s CPU      0.39s WALL (      61 calls)
     newd         :      0.51s CPU      0.53s WALL (      61 calls)
     mix_rho      :      0.02s CPU      0.02s WALL (      56 calls)

     Called by c_bands:
     init_us_2    :      0.09s CPU      0.10s WALL (    4224 calls)
     cegterg      :      2.37s CPU      2.73s WALL (    1792 calls)

     Called by *egterg:
     cdiaghg      :      0.35s CPU      0.40s WALL (    6630 calls)
     h_psi        :      1.69s CPU      1.94s WALL (    7046 calls)
     s_psi        :      0.03s CPU      0.04s WALL (    7046 calls)
     g_psi        :      0.01s CPU      0.01s WALL (    5190 calls)

     Called by h_psi:
     h_psi:calbec :      0.09s CPU      0.11s WALL (    7046 calls)
     vloc_psi     :      1.52s CPU      1.75s WALL (    7046 calls)
     add_vuspsi   :      0.03s CPU      0.04s WALL (    7046 calls)

     General routines
     calbec       :      0.16s CPU      0.18s WALL (   13734 calls)
     fft          :      0.20s CPU      0.21s WALL (    1882 calls)
     ffts         :      0.11s CPU      0.11s WALL (     234 calls)
     fftw         :      1.49s CPU      1.70s WALL (   94520 calls)
     interpolate  :      0.12s CPU      0.12s WALL (     122 calls)

     Parallel routines

     PWSCF        :      6.46s CPU      7.00s WALL


   This run was terminated on:  17:52:28  20Oct2025            

=------------------------------------------------------------------------------=
   JOB DONE.
=------------------------------------------------------------------------------=
