
     Program PWSCF v.7.4.1 starts on 21Oct2025 at 13:50:54 

     This program is part of the open-source Quantum ESPRESSO suite
     for quantum simulation of materials; please cite
         "P. Giannozzi et al., J. Phys.:Condens. Matter 21 395502 (2009);
         "P. Giannozzi et al., J. Phys.:Condens. Matter 29 465901 (2017);
         "P. Giannozzi et al., J. Chem. Phys. 152 154105 (2020);
          URL http://www.quantum-espresso.org", 
     in publications or presentations arising from this work. More details at
     http://www.quantum-espresso.org/quote

     Parallel version (MPI), running on     2 processors

     MPI processes distributed on     1 nodes
     444 MiB available memory on the printing compute node when the environment starts

     Waiting for input...
     Reading input from standard input
Warning: card &CELL ignored
Warning: card / ignored

     Current dimensions of program PWSCF are:
     Max number of different atomic species (ntypx) = 10
     Max number of k-points (npk) =  40000
     Max angular momentum in pseudopotentials (lmaxx) =  4
     file O.pz-rrkjus.UPF: wavefunction(s)  2S renormalized
     Message from routine setup:
     using ibrav=0 with symmetry is DISCOURAGED, use correct ibrav instead

     R & G space division:  proc/nbgrp/npool/nimage =       2
     Subspace diagonalization in iterative solution of the eigenvalue problem:
     a serial algorithm will be used


     Parallelization info
     --------------------
     sticks:   dense  smooth     PW     G-vecs:    dense   smooth      PW
     Min         516     254     74                12286     4354     709
     Max         517     255     75                12287     4355     710
     Sum        1033     509    149                24573     8709    1419

     Using Slab Decomposition



     bravais-lattice index     =            0
     lattice parameter (alat)  =       7.3227  a.u.
     unit-cell volume          =     392.6555 (a.u.)^3
     number of atoms/cell      =            5
     number of atomic types    =            3
     number of electrons       =        44.00
     number of Kohn-Sham states=           22
     kinetic-energy cutoff     =      30.0000  Ry
     charge density cutoff     =     240.0000  Ry
     scf convergence threshold =      1.0E-07
     mixing beta               =       0.7000
     number of iterations used =            8  plain     mixing
     energy convergence thresh.=      1.0E-04
     force convergence thresh. =      1.0E-03
     Exchange-correlation= SLA  PZ   NOGX NOGC
                           (   1   1   0   0   0   0   0)
     nstep                     =           50


     celldm(1)=   7.322689  celldm(2)=   0.000000  celldm(3)=   0.000000
     celldm(4)=   0.000000  celldm(5)=   0.000000  celldm(6)=   0.000000

     crystal axes: (cart. coord. in units of alat)
               a(1) = (   1.000000   0.000000   0.000000 )  
               a(2) = (   0.000000   1.000000   0.000000 )  
               a(3) = (   0.000000   0.000000   1.000000 )  

     reciprocal axes: (cart. coord. in units 2 pi/alat)
               b(1) = (  1.000000  0.000000  0.000000 )  
               b(2) = (  0.000000  1.000000  0.000000 )  
               b(3) = (  0.000000  0.000000  1.000000 )  


     PseudoPot. # 1 for O  read from file:
     /home/bond/Software/QE/qe-7.4.1/pseudo/O.pz-rrkjus.UPF
     MD5 check sum: 24fb942a68ef5d262e498166c462ef4a
     Pseudo is Ultrasoft, Zval =  6.0
     Generated by new atomic code, or converted to UPF format
     Using radial grid of 1269 points,  4 beta functions with: 
                l(1) =   0
                l(2) =   0
                l(3) =   1
                l(4) =   1
     Q(r) pseudized with 0 coefficients 


     PseudoPot. # 2 for Pb read from file:
     /home/bond/Software/QE/qe-7.4.1/pseudo/Pb.pz-d-van.UPF
     MD5 check sum: 4e1e5920686a026ae26139ac417581ff
     Pseudo is Ultrasoft, Zval = 14.0
     Generated by new atomic code, or converted to UPF format
     Using radial grid of  899 points,  6 beta functions with: 
                l(1) =   0
                l(2) =   0
                l(3) =   1
                l(4) =   1
                l(5) =   2
                l(6) =   2
     Q(r) pseudized with  8 coefficients,  rinner =    1.000   1.000   1.000
                                                       1.000   1.000

     PseudoPot. # 3 for Ti read from file:
     /home/bond/Software/QE/qe-7.4.1/pseudo/Ti.pz-sp-van_ak.UPF
     MD5 check sum: 545d0e6e05332b8871a8093f427cb0ca
     Pseudo is Ultrasoft, Zval = 12.0
     Generated by new atomic code, or converted to UPF format
     Using radial grid of  851 points,  6 beta functions with: 
                l(1) =   0
                l(2) =   0
                l(3) =   1
                l(4) =   1
                l(5) =   2
                l(6) =   2
     Q(r) pseudized with  8 coefficients,  rinner =    1.000   1.000   1.000
                                                       1.000   1.000

     atomic species   valence    mass     pseudopotential
     O                 6.00    15.99900     O ( 1.00)
     Pb               14.00   207.20000     Pb( 1.00)
     Ti               12.00    47.86700     Ti( 1.00)

      8 Sym. Ops. (no inversion) found



   Cartesian axes

     site n.     atom                  positions (alat units)
         1        Pb     tau(   1) = (   0.0000000   0.0000000   0.0000000  )
         2        Ti     tau(   2) = (   0.5000000   0.5000000   0.5250013  )
         3        O      tau(   3) = (   0.0000000   0.5000000   0.5000000  )
         4        O      tau(   4) = (   0.5000000   0.0000000   0.5000000  )
         5        O      tau(   5) = (   0.5000000   0.5000000   0.0000000  )

     number of k points=     6
                       cart. coord. in units 2pi/alat
        k(    1) = (   0.1250000   0.1250000   0.1250000), wk =   0.2500000
        k(    2) = (   0.1250000   0.1250000   0.3750000), wk =   0.2500000
        k(    3) = (   0.1250000   0.3750000   0.3750000), wk =   0.5000000
        k(    4) = (   0.3750000   0.3750000   0.3750000), wk =   0.2500000
        k(    5) = (   0.3750000  -0.1250000   0.1250000), wk =   0.5000000
        k(    6) = (   0.3750000  -0.3750000   0.1250000), wk =   0.2500000

     Dense  grid:    24573 G-vectors     FFT dimensions: (  40,  40,  40)

     Smooth grid:     8709 G-vectors     FFT dimensions: (  25,  25,  25)

     Estimated max dynamical RAM per process >      51.19 MB

     Estimated total dynamical RAM >     102.38 MB

     Initial potential from superposition of free atoms

     starting charge      42.9982, renormalised to      44.0000
     Starting wfcs are   31 randomized atomic wfcs

     total cpu time spent up to now is        1.7 secs

     Self-consistent Calculation

     iteration #  1     ecut=    30.00 Ry     beta= 0.70
     Davidson diagonalization with overlap
     ethr =  1.00E-02,  avg # of iterations =  2.0

     total cpu time spent up to now is        2.1 secs

     total energy              =    -332.62076044 Ry
     estimated scf accuracy    <       1.09439241 Ry

     iteration #  2     ecut=    30.00 Ry     beta= 0.70
     Davidson diagonalization with overlap
     ethr =  2.49E-03,  avg # of iterations =  6.3

     total cpu time spent up to now is        2.6 secs

     total energy              =    -332.39932061 Ry
     estimated scf accuracy    <       4.03879378 Ry

     iteration #  3     ecut=    30.00 Ry     beta= 0.70
     Davidson diagonalization with overlap
     ethr =  2.49E-03,  avg # of iterations =  5.2

     total cpu time spent up to now is        3.0 secs

     total energy              =    -333.15819115 Ry
     estimated scf accuracy    <       0.21539121 Ry

     iteration #  4     ecut=    30.00 Ry     beta= 0.70
     Davidson diagonalization with overlap
     ethr =  4.90E-04,  avg # of iterations =  2.0

     total cpu time spent up to now is        3.4 secs

     total energy              =    -333.15506057 Ry
     estimated scf accuracy    <       0.05851678 Ry

     iteration #  5     ecut=    30.00 Ry     beta= 0.70
     Davidson diagonalization with overlap
     ethr =  1.33E-04,  avg # of iterations =  4.8

     total cpu time spent up to now is        3.9 secs

     total energy              =    -333.18240344 Ry
     estimated scf accuracy    <       0.02280468 Ry

     iteration #  6     ecut=    30.00 Ry     beta= 0.70
     Davidson diagonalization with overlap
     ethr =  5.18E-05,  avg # of iterations =  1.8

     total cpu time spent up to now is        4.3 secs

     total energy              =    -333.18073659 Ry
     estimated scf accuracy    <       0.00905843 Ry

     iteration #  7     ecut=    30.00 Ry     beta= 0.70
     Davidson diagonalization with overlap
     ethr =  2.06E-05,  avg # of iterations =  4.3

     total cpu time spent up to now is        4.7 secs

     total energy              =    -333.18307782 Ry
     estimated scf accuracy    <       0.00006766 Ry

     iteration #  8     ecut=    30.00 Ry     beta= 0.70
     Davidson diagonalization with overlap
     ethr =  1.54E-07,  avg # of iterations =  7.2

     total cpu time spent up to now is        5.2 secs

     total energy              =    -333.18313236 Ry
     estimated scf accuracy    <       0.00025017 Ry

     iteration #  9     ecut=    30.00 Ry     beta= 0.70
     Davidson diagonalization with overlap
     ethr =  1.54E-07,  avg # of iterations =  2.0

     total cpu time spent up to now is        5.6 secs

     total energy              =    -333.18310417 Ry
     estimated scf accuracy    <       0.00014569 Ry

     iteration # 10     ecut=    30.00 Ry     beta= 0.70
     Davidson diagonalization with overlap
     ethr =  1.54E-07,  avg # of iterations =  4.3

     total cpu time spent up to now is        6.0 secs

     total energy              =    -333.18311682 Ry
     estimated scf accuracy    <       0.00000836 Ry

     iteration # 11     ecut=    30.00 Ry     beta= 0.70
     Davidson diagonalization with overlap
     ethr =  1.90E-08,  avg # of iterations =  4.3

     total cpu time spent up to now is        6.5 secs

     total energy              =    -333.18311925 Ry
     estimated scf accuracy    <       0.00000024 Ry

     iteration # 12     ecut=    30.00 Ry     beta= 0.70
     Davidson diagonalization with overlap
     ethr =  5.39E-10,  avg # of iterations =  4.8

     total cpu time spent up to now is        6.9 secs

     total energy              =    -333.18311915 Ry
     estimated scf accuracy    <       0.00000075 Ry

     iteration # 13     ecut=    30.00 Ry     beta= 0.70
     Davidson diagonalization with overlap
     ethr =  5.39E-10,  avg # of iterations =  4.3

     total cpu time spent up to now is        7.3 secs

     End of self-consistent calculation

          k = 0.1250 0.1250 0.1250 (  1090 PWs)   bands (ev):

   -44.6050 -21.2494 -21.2115 -21.2104  -6.3248  -5.2674  -5.2264  -3.9640
    -3.9599  -3.9473  -3.7800  -3.7754   4.6571   7.3047   7.3254   8.0918
     9.0812   9.1331   9.8142   9.8748  10.0247  10.1690

          k = 0.1250 0.1250 0.3750 (  1095 PWs)   bands (ev):

   -44.6037 -21.3078 -21.2093 -21.2083  -5.8962  -5.1101  -5.1030  -4.0248
    -3.9591  -3.9433  -3.8739  -3.7499   3.9056   6.8357   7.2850   7.8637
     8.4853   8.6911   9.4197   9.9310  10.1600  10.9066

          k = 0.1250 0.3750 0.3750 (  1087 PWs)   bands (ev):

   -44.6024 -21.3042 -21.2652 -21.2067  -5.6816  -5.0171  -4.9298  -3.9981
    -3.9536  -3.8999  -3.8092  -3.6511   3.5475   6.7331   6.9283   7.1992
     7.5103   8.7110   9.4214   9.5120  10.0548  10.7115

          k = 0.3750 0.3750 0.3750 (  1082 PWs)   bands (ev):

   -44.6012 -21.3016 -21.2628 -21.2625  -5.3036  -5.1401  -5.1102  -3.9103
    -3.9051  -3.6190  -3.5549  -3.5413   4.1708   5.9299   5.9645   6.7141
     7.0771   7.1013   7.9952  10.6556  10.6952  10.7670

          k = 0.3750-0.1250 0.1250 (  1095 PWs)   bands (ev):

   -44.6037 -21.2688 -21.2472 -21.2088  -5.9241  -5.1374  -5.0604  -4.0226
    -3.9563  -3.9445  -3.8790  -3.7458   3.9226   6.8737   7.3607   7.8598
     8.4541   8.7828   9.3454   9.9370  10.0712  10.8640

          k = 0.3750-0.3750 0.1250 (  1087 PWs)   bands (ev):

   -44.6024 -21.2657 -21.2648 -21.2450  -5.7347  -4.9847  -4.9107  -3.9935
    -3.9521  -3.8948  -3.8072  -3.6696   3.5629   6.8358   6.8758   7.1784
     7.4831   8.6891   9.4825   9.5036  10.0401  10.7634

     highest occupied level (ev):    10.9066

!    total energy              =    -333.18311917 Ry
     estimated scf accuracy    <       0.00000005 Ry

     The total energy is the sum of the following terms:
     one-electron contribution =     -76.69557963 Ry
     hartree contribution      =      66.34983205 Ry
     xc contribution           =     -49.65806302 Ry
     ewald contribution        =    -273.17930857 Ry

     convergence has been achieved in  13 iterations

     Forces acting on atoms (cartesian axes, Ry/au):

     atom    1 type  2   force =     0.00000000    0.00000000    0.01093508
     atom    2 type  3   force =     0.00000000    0.00000000   -0.01926000
     atom    3 type  1   force =     0.00000000    0.00000000   -0.00007440
     atom    4 type  1   force =     0.00000000    0.00000000   -0.00007440
     atom    5 type  1   force =     0.00000000    0.00000000    0.00847373

     Total force =     0.021042     Total SCF correction =     0.000074


     Computing stress (Cartesian axis) and pressure

          total   stress  (Ry/bohr**3)                   (kbar)     P=       -8.21
  -0.00008826   0.00000000   0.00000000          -12.98        0.00        0.00
   0.00000000  -0.00008826   0.00000000            0.00      -12.98        0.00
   0.00000000   0.00000000   0.00000918            0.00        0.00        1.35


     BFGS Geometry Optimization
     Energy error            =      4.6E-04 Ry
     Gradient error          =      1.9E-02 Ry/Bohr

     number of scf cycles    =   1
     number of bfgs steps    =   0

     energy             new  =    -333.1831191664 Ry

     new trust radius        =       0.0192599960 bohr
     new conv_thr            =       0.0000001000 Ry


ATOMIC_POSITIONS (angstrom)
Pb               0.0000000000        0.0000000000        0.0000000000    0   0   0
Ti               1.9375000000        1.9375000000        2.0241880490
O                0.0000000000        1.9375000000        1.9374606267
O                1.9375000000        0.0000000000        1.9374606267
O                1.9375000000        1.9375000000        0.0044841029


     Message from routine punch:
     Nothing written, as per user request (disk_io='none')
     NEW-OLD atomic charge density approx. for the potential

     total cpu time spent up to now is        9.0 secs

     Self-consistent Calculation

     iteration #  1     ecut=    30.00 Ry     beta= 0.70
     Davidson diagonalization with overlap
     ethr =  1.00E-06,  avg # of iterations =  7.5

     total cpu time spent up to now is        9.6 secs

     total energy              =    -333.18346780 Ry
     estimated scf accuracy    <       0.00011930 Ry

     iteration #  2     ecut=    30.00 Ry     beta= 0.70
     Davidson diagonalization with overlap
     ethr =  2.71E-07,  avg # of iterations =  4.7

     total cpu time spent up to now is       10.1 secs

     total energy              =    -333.18348105 Ry
     estimated scf accuracy    <       0.00008881 Ry

     iteration #  3     ecut=    30.00 Ry     beta= 0.70
     Davidson diagonalization with overlap
     ethr =  2.02E-07,  avg # of iterations =  4.2

     total cpu time spent up to now is       10.6 secs

     total energy              =    -333.18350215 Ry
     estimated scf accuracy    <       0.00002621 Ry

     iteration #  4     ecut=    30.00 Ry     beta= 0.70
     Davidson diagonalization with overlap
     ethr =  5.96E-08,  avg # of iterations =  4.0

     total cpu time spent up to now is       11.1 secs

     total energy              =    -333.18350682 Ry
     estimated scf accuracy    <       0.00000036 Ry

     iteration #  5     ecut=    30.00 Ry     beta= 0.70
     Davidson diagonalization with overlap
     ethr =  8.18E-10,  avg # of iterations =  6.2

     total cpu time spent up to now is       11.6 secs

     total energy              =    -333.18350728 Ry
     estimated scf accuracy    <       0.00000040 Ry

     iteration #  6     ecut=    30.00 Ry     beta= 0.70
     Davidson diagonalization with overlap
     ethr =  8.18E-10,  avg # of iterations =  3.0

     total cpu time spent up to now is       12.0 secs

     End of self-consistent calculation

          k = 0.1250 0.1250 0.1250 (  1090 PWs)   bands (ev):

   -44.6199 -21.2538 -21.2267 -21.2257  -6.3255  -5.2632  -5.2320  -3.9604
    -3.9574  -3.9446  -3.7771  -3.7737   4.6605   7.3071   7.3224   8.0916
     9.0999   9.1403   9.8470   9.8815  10.0154  10.1647

          k = 0.1250 0.1250 0.3750 (  1095 PWs)   bands (ev):

   -44.6187 -21.3120 -21.2245 -21.2236  -5.9013  -5.1094  -5.1018  -4.0215
    -3.9555  -3.9408  -3.8722  -3.7467   3.9135   6.8376   7.2995   7.8615
     8.4816   8.7083   9.4160   9.9374  10.1521  10.9015

          k = 0.1250 0.3750 0.3750 (  1087 PWs)   bands (ev):

   -44.6174 -21.3084 -21.2804 -21.2219  -5.6863  -5.0110  -4.9312  -3.9948
    -3.9504  -3.8968  -3.8065  -3.6503   3.5520   6.7479   6.9151   7.1985
     7.5085   8.7054   9.4354   9.5066  10.0568  10.7189

          k = 0.3750 0.3750 0.3750 (  1082 PWs)   bands (ev):

   -44.6161 -21.3059 -21.2780 -21.2778  -5.3015  -5.1368  -5.1137  -3.9067
    -3.9028  -3.6156  -3.5514  -3.5408   4.1741   5.9371   5.9629   6.7154
     7.0687   7.0869   7.9966  10.6664  10.6986  10.7664

          k = 0.3750-0.1250 0.1250 (  1095 PWs)   bands (ev):

   -44.6187 -21.2841 -21.2515 -21.2241  -5.9224  -5.1356  -5.0645  -4.0199
    -3.9535  -3.9416  -3.8760  -3.7437   3.9260   6.8673   7.3589   7.8600
     8.4559   8.7781   9.3599   9.9428  10.0842  10.8686

          k = 0.3750-0.3750 0.1250 (  1087 PWs)   bands (ev):

   -44.6174 -21.2809 -21.2800 -21.2494  -5.7267  -4.9882  -4.9152  -3.9914
    -3.9494  -3.8930  -3.8049  -3.6643   3.5633   6.8320   6.8694   7.1845
     7.4903   8.6886   9.4800   9.5014  10.0436  10.7585

     highest occupied level (ev):    10.9015

!    total energy              =    -333.18350723 Ry
     estimated scf accuracy    <       0.00000010 Ry

     The total energy is the sum of the following terms:
     one-electron contribution =     -76.60717208 Ry
     hartree contribution      =      66.30242969 Ry
     xc contribution           =     -49.65470844 Ry
     ewald contribution        =    -273.22405640 Ry

     convergence has been achieved in   6 iterations

     Forces acting on atoms (cartesian axes, Ry/au):

     atom    1 type  2   force =     0.00000000    0.00000000    0.00998115
     atom    2 type  3   force =     0.00000000    0.00000000   -0.01542747
     atom    3 type  1   force =     0.00000000    0.00000000    0.00067476
     atom    4 type  1   force =     0.00000000    0.00000000    0.00067476
     atom    5 type  1   force =     0.00000000    0.00000000    0.00409681

     Total force =     0.015991     Total SCF correction =     0.000193


     Computing stress (Cartesian axis) and pressure

          total   stress  (Ry/bohr**3)                   (kbar)     P=      -10.12
  -0.00009160   0.00000000   0.00000000          -13.48        0.00        0.00
   0.00000000  -0.00009160   0.00000000            0.00      -13.48        0.00
   0.00000000   0.00000000  -0.00002328            0.00        0.00       -3.42

     Energy error            =      3.9E-04 Ry
     Gradient error          =      1.5E-02 Ry/Bohr

     number of scf cycles    =   2
     number of bfgs steps    =   1

     energy             old  =    -333.1831191664 Ry
     energy             new  =    -333.1835072252 Ry

     CASE: energy            _new < energy            _old

     new trust radius        =       0.0211859956 bohr
     new conv_thr            =       0.0000000039 Ry


ATOMIC_POSITIONS (angstrom)
Pb               0.0000000000        0.0000000000        0.0000000000    0   0   0
Ti               1.9375000000        1.9375000000        2.0129769029
O                0.0000000000        1.9375000000        1.9379113453
O                1.9375000000        0.0000000000        1.9379113453
O                1.9375000000        1.9375000000        0.0076064584


     Message from routine punch:
     Nothing written, as per user request (disk_io='none')
     NEW-OLD atomic charge density approx. for the potential

     total cpu time spent up to now is       13.6 secs

     Self-consistent Calculation

     iteration #  1     ecut=    30.00 Ry     beta= 0.70
     Davidson diagonalization with overlap
     ethr =  1.00E-06,  avg # of iterations =  7.3

     total cpu time spent up to now is       14.2 secs

     total energy              =    -333.18377687 Ry
     estimated scf accuracy    <       0.00010747 Ry

     iteration #  2     ecut=    30.00 Ry     beta= 0.70
     Davidson diagonalization with overlap
     ethr =  2.44E-07,  avg # of iterations =  4.8

     total cpu time spent up to now is       14.6 secs

     total energy              =    -333.18379027 Ry
     estimated scf accuracy    <       0.00007592 Ry

     iteration #  3     ecut=    30.00 Ry     beta= 0.70
     Davidson diagonalization with overlap
     ethr =  1.73E-07,  avg # of iterations =  4.2

     total cpu time spent up to now is       15.1 secs

     total energy              =    -333.18380862 Ry
     estimated scf accuracy    <       0.00002640 Ry

     iteration #  4     ecut=    30.00 Ry     beta= 0.70
     Davidson diagonalization with overlap
     ethr =  6.00E-08,  avg # of iterations =  4.0

     total cpu time spent up to now is       15.5 secs

     total energy              =    -333.18381282 Ry
     estimated scf accuracy    <       0.00000049 Ry

     iteration #  5     ecut=    30.00 Ry     beta= 0.70
     Davidson diagonalization with overlap
     ethr =  1.12E-09,  avg # of iterations =  6.7

     total cpu time spent up to now is       16.0 secs

     total energy              =    -333.18381347 Ry
     estimated scf accuracy    <       0.00000084 Ry

     iteration #  6     ecut=    30.00 Ry     beta= 0.70
     Davidson diagonalization with overlap
     ethr =  1.12E-09,  avg # of iterations =  3.0

     total cpu time spent up to now is       16.4 secs

     total energy              =    -333.18381342 Ry
     estimated scf accuracy    <       0.00000030 Ry

     iteration #  7     ecut=    30.00 Ry     beta= 0.70
     Davidson diagonalization with overlap
     ethr =  6.72E-10,  avg # of iterations =  4.5

     total cpu time spent up to now is       16.8 secs

     total energy              =    -333.18381351 Ry
     estimated scf accuracy    <       0.00000002 Ry

     iteration #  8     ecut=    30.00 Ry     beta= 0.70
     Davidson diagonalization with overlap
     ethr =  3.81E-11,  avg # of iterations =  3.5

     total cpu time spent up to now is       17.3 secs

     total energy              =    -333.18381350 Ry
     estimated scf accuracy    <       0.00000002 Ry

     iteration #  9     ecut=    30.00 Ry     beta= 0.70
     Davidson diagonalization with overlap
     ethr =  3.81E-11,  avg # of iterations =  4.5

     total cpu time spent up to now is       17.7 secs

     End of self-consistent calculation

          k = 0.1250 0.1250 0.1250 (  1090 PWs)   bands (ev):

   -44.6321 -21.2574 -21.2393 -21.2382  -6.3262  -5.2595  -5.2376  -3.9574
    -3.9553  -3.9423  -3.7747  -3.7723   4.6634   7.3091   7.3198   8.0919
     9.1161   9.1456   9.8788   9.8882  10.0062  10.1576

          k = 0.1250 0.1250 0.3750 (  1095 PWs)   bands (ev):

   -44.6309 -21.3155 -21.2371 -21.2361  -5.9062  -5.1157  -5.0944  -4.0187
    -3.9525  -3.9387  -3.8708  -3.7439   3.9201   6.8398   7.3129   7.8602
     8.4771   8.7230   9.4121   9.9434  10.1444  10.8961

          k = 0.1250 0.3750 0.3750 (  1087 PWs)   bands (ev):

   -44.6296 -21.3119 -21.2929 -21.2345  -5.6908  -5.0063  -4.9319  -3.9920
    -3.9478  -3.8941  -3.8041  -3.6497   3.5558   6.7625   6.9016   7.1975
     7.5070   8.7000   9.4465   9.5018  10.0576  10.7255

          k = 0.3750 0.3750 0.3750 (  1082 PWs)   bands (ev):

   -44.6283 -21.3094 -21.2906 -21.2903  -5.3000  -5.1336  -5.1170  -3.9037
    -3.9009  -3.6128  -3.5482  -3.5406   4.1768   5.9430   5.9610   6.7171
     7.0604   7.0730   7.9972  10.6756  10.6998  10.7669

          k = 0.3750-0.1250 0.1250 (  1095 PWs)   bands (ev):

   -44.6309 -21.2966 -21.2552 -21.2366  -5.9210  -5.1340  -5.0685  -4.0175
    -3.9511  -3.9392  -3.8735  -3.7419   3.9288   6.8612   7.3565   7.8601
     8.4576   8.7727   9.3723   9.9478  10.0958  10.8725

          k = 0.3750-0.3750 0.1250 (  1087 PWs)   bands (ev):

   -44.6296 -21.2935 -21.2925 -21.2530  -5.7193  -4.9915  -4.9195  -3.9895
    -3.9471  -3.8914  -3.8030  -3.6596   3.5636   6.8285   6.8629   7.1887
     7.4956   8.6882   9.4767   9.4994  10.0470  10.7538

     highest occupied level (ev):    10.8961

!    total energy              =    -333.18381351 Ry
     estimated scf accuracy    <          1.2E-10 Ry

     The total energy is the sum of the following terms:
     one-electron contribution =     -76.53989499 Ry
     hartree contribution      =      66.26556871 Ry
     xc contribution           =     -49.65217351 Ry
     ewald contribution        =    -273.25731372 Ry

     convergence has been achieved in   9 iterations

     Forces acting on atoms (cartesian axes, Ry/au):

     atom    1 type  2   force =     0.00000000    0.00000000    0.00867124
     atom    2 type  3   force =     0.00000000    0.00000000   -0.01204428
     atom    3 type  1   force =     0.00000000    0.00000000    0.00115050
     atom    4 type  1   force =     0.00000000    0.00000000    0.00115050
     atom    5 type  1   force =     0.00000000    0.00000000    0.00107203

     Total force =     0.012201     Total SCF correction =     0.000008


     Computing stress (Cartesian axis) and pressure

          total   stress  (Ry/bohr**3)                   (kbar)     P=      -12.27
  -0.00009857   0.00000000   0.00000000          -14.50        0.00        0.00
   0.00000000  -0.00009857   0.00000000            0.00      -14.50        0.00
   0.00000000   0.00000000  -0.00005302            0.00        0.00       -7.80

     Energy error            =      3.1E-04 Ry
     Gradient error          =      1.2E-02 Ry/Bohr

     number of scf cycles    =   3
     number of bfgs steps    =   2

     energy             old  =    -333.1835072252 Ry
     energy             new  =    -333.1838135072 Ry

     CASE: energy            _new < energy            _old

     new trust radius        =       0.0317789934 bohr
     new conv_thr            =       0.0000000031 Ry


ATOMIC_POSITIONS (angstrom)
Pb               0.0000000000        0.0000000000        0.0000000000    0   0   0
Ti               1.9375000000        1.9375000000        1.9961601838
O                0.0000000000        1.9375000000        1.9391480610
O                1.9375000000        0.0000000000        1.9391480610
O                1.9375000000        1.9375000000        0.0103894121


     Message from routine punch:
     Nothing written, as per user request (disk_io='none')
     NEW-OLD atomic charge density approx. for the potential

     total cpu time spent up to now is       19.2 secs

     Self-consistent Calculation

     iteration #  1     ecut=    30.00 Ry     beta= 0.70
     Davidson diagonalization with overlap
     ethr =  1.00E-06,  avg # of iterations =  8.3

     total cpu time spent up to now is       19.8 secs

     total energy              =    -333.18408430 Ry
     estimated scf accuracy    <       0.00018031 Ry

     iteration #  2     ecut=    30.00 Ry     beta= 0.70
     Davidson diagonalization with overlap
     ethr =  4.10E-07,  avg # of iterations =  4.0

     total cpu time spent up to now is       20.3 secs

     total energy              =    -333.18412053 Ry
     estimated scf accuracy    <       0.00004712 Ry

     iteration #  3     ecut=    30.00 Ry     beta= 0.70
     Davidson diagonalization with overlap
     ethr =  1.07E-07,  avg # of iterations =  4.7

     total cpu time spent up to now is       20.7 secs

     total energy              =    -333.18413065 Ry
     estimated scf accuracy    <       0.00001947 Ry

     iteration #  4     ecut=    30.00 Ry     beta= 0.70
     Davidson diagonalization with overlap
     ethr =  4.42E-08,  avg # of iterations =  4.0

     total cpu time spent up to now is       21.2 secs

     total energy              =    -333.18413523 Ry
     estimated scf accuracy    <       0.00000147 Ry

     iteration #  5     ecut=    30.00 Ry     beta= 0.70
     Davidson diagonalization with overlap
     ethr =  3.35E-09,  avg # of iterations =  4.5

     total cpu time spent up to now is       21.6 secs

     total energy              =    -333.18413550 Ry
     estimated scf accuracy    <       0.00000017 Ry

     iteration #  6     ecut=    30.00 Ry     beta= 0.70
     Davidson diagonalization with overlap
     ethr =  3.95E-10,  avg # of iterations =  5.2

     total cpu time spent up to now is       22.1 secs

     total energy              =    -333.18413558 Ry
     estimated scf accuracy    <       0.00000009 Ry

     iteration #  7     ecut=    30.00 Ry     beta= 0.70
     Davidson diagonalization with overlap
     ethr =  2.13E-10,  avg # of iterations =  3.0

     total cpu time spent up to now is       22.4 secs

     total energy              =    -333.18413558 Ry
     estimated scf accuracy    <       0.00000003 Ry

     iteration #  8     ecut=    30.00 Ry     beta= 0.70
     Davidson diagonalization with overlap
     ethr =  7.46E-11,  avg # of iterations =  3.8

     total cpu time spent up to now is       22.8 secs

     total energy              =    -333.18413559 Ry
     estimated scf accuracy    <          5.1E-09 Ry

     iteration #  9     ecut=    30.00 Ry     beta= 0.70
     Davidson diagonalization with overlap
     ethr =  1.16E-11,  avg # of iterations =  4.8

     total cpu time spent up to now is       23.3 secs

     End of self-consistent calculation

          k = 0.1250 0.1250 0.1250 (  1090 PWs)   bands (ev):

   -44.6454 -21.2618 -21.2528 -21.2518  -6.3268  -5.2553  -5.2436  -3.9543
    -3.9532  -3.9398  -3.7721  -3.7708   4.6667   7.3117   7.3172   8.0928
     9.1344   9.1509   9.8969   9.9202   9.9953  10.1445

          k = 0.1250 0.1250 0.3750 (  1095 PWs)   bands (ev):

   -44.6442 -21.3197 -21.2507 -21.2497  -5.9113  -5.1225  -5.0860  -4.0157
    -3.9494  -3.9364  -3.8694  -3.7410   3.9275   6.8425   7.3288   7.8597
     8.4711   8.7391   9.4074   9.9510  10.1357  10.8897

          k = 0.1250 0.3750 0.3750 (  1087 PWs)   bands (ev):

   -44.6429 -21.3161 -21.3065 -21.2481  -5.6957  -5.0019  -4.9312  -3.9890
    -3.9450  -3.8913  -3.8016  -3.6492   3.5599   6.7821   6.8830   7.1964
     7.5057   8.6940   9.4572   9.4976  10.0579  10.7336

          k = 0.3750 0.3750 0.3750 (  1082 PWs)   bands (ev):

   -44.6416 -21.3136 -21.3042 -21.3039  -5.2985  -5.1294  -5.1204  -3.9005
    -3.8990  -3.6100  -3.5444  -3.5403   4.1796   5.9494   5.9588   6.7198
     7.0500   7.0566   7.9974  10.6861  10.6998  10.7692

          k = 0.3750-0.1250 0.1250 (  1095 PWs)   bands (ev):

   -44.6442 -21.3102 -21.2595 -21.2502  -5.9192  -5.1323  -5.0724  -4.0151
    -3.9486  -3.9366  -3.8709  -3.7400   3.9320   6.8543   7.3534   7.8604
     8.4598   8.7660   9.3861   9.9538  10.1094  10.8767

          k = 0.3750-0.3750 0.1250 (  1087 PWs)   bands (ev):

   -44.6429 -21.3071 -21.3061 -21.2574  -5.7109  -4.9948  -4.9240  -3.9877
    -3.9447  -3.8898  -3.8010  -3.6546   3.5638   6.8247   6.8551   7.1925
     7.5006   8.6876   9.4723   9.4974  10.0513  10.7488

     highest occupied level (ev):    10.8897

!    total energy              =    -333.18413559 Ry
     estimated scf accuracy    <          2.6E-10 Ry

     The total energy is the sum of the following terms:
     one-electron contribution =     -76.47645764 Ry
     hartree contribution      =      66.23103243 Ry
     xc contribution           =     -49.64961138 Ry
     ewald contribution        =    -273.28909900 Ry

     convergence has been achieved in   9 iterations

     Forces acting on atoms (cartesian axes, Ry/au):

     atom    1 type  2   force =     0.00000000    0.00000000    0.00674759
     atom    2 type  3   force =     0.00000000    0.00000000   -0.00826531
     atom    3 type  1   force =     0.00000000    0.00000000    0.00149670
     atom    4 type  1   force =     0.00000000    0.00000000    0.00149670
     atom    5 type  1   force =     0.00000000    0.00000000   -0.00147567

     Total force =     0.008659     Total SCF correction =     0.000001


     Computing stress (Cartesian axis) and pressure

          total   stress  (Ry/bohr**3)                   (kbar)     P=      -13.81
  -0.00010119   0.00000000   0.00000000          -14.88        0.00        0.00
   0.00000000  -0.00010119   0.00000000            0.00      -14.88        0.00
   0.00000000   0.00000000  -0.00007923            0.00        0.00      -11.65

     Energy error            =      3.2E-04 Ry
     Gradient error          =      8.3E-03 Ry/Bohr

     number of scf cycles    =   4
     number of bfgs steps    =   3

     energy             old  =    -333.1838135072 Ry
     energy             new  =    -333.1841355879 Ry

     CASE: energy            _new < energy            _old

     new trust radius        =       0.0476684902 bohr
     new conv_thr            =       0.0000000032 Ry


ATOMIC_POSITIONS (angstrom)
Pb               0.0000000000        0.0000000000        0.0000000000    0   0   0
Ti               1.9375000000        1.9375000000        1.9709351051
O                0.0000000000        1.9375000000        1.9417123970
O                1.9375000000        0.0000000000        1.9417123970
O                1.9375000000        1.9375000000        0.0123827282


     Message from routine punch:
     Nothing written, as per user request (disk_io='none')
     NEW-OLD atomic charge density approx. for the potential

     total cpu time spent up to now is       24.7 secs

     Self-consistent Calculation

     iteration #  1     ecut=    30.00 Ry     beta= 0.70
     Davidson diagonalization with overlap
     ethr =  1.00E-06,  avg # of iterations =  9.5

     total cpu time spent up to now is       25.4 secs

     total energy              =    -333.18434746 Ry
     estimated scf accuracy    <       0.00033326 Ry

     iteration #  2     ecut=    30.00 Ry     beta= 0.70
     Davidson diagonalization with overlap
     ethr =  7.57E-07,  avg # of iterations =  2.0

     total cpu time spent up to now is       25.8 secs

     total energy              =    -333.18442532 Ry
     estimated scf accuracy    <       0.00003893 Ry

     iteration #  3     ecut=    30.00 Ry     beta= 0.70
     Davidson diagonalization with overlap
     ethr =  8.85E-08,  avg # of iterations =  2.0

     total cpu time spent up to now is       26.2 secs

     total energy              =    -333.18443256 Ry
     estimated scf accuracy    <       0.00000153 Ry

     iteration #  4     ecut=    30.00 Ry     beta= 0.70
     Davidson diagonalization with overlap
     ethr =  3.48E-09,  avg # of iterations =  5.7

     total cpu time spent up to now is       26.6 secs

     total energy              =    -333.18443330 Ry
     estimated scf accuracy    <       0.00000085 Ry

     iteration #  5     ecut=    30.00 Ry     beta= 0.70
     Davidson diagonalization with overlap
     ethr =  1.93E-09,  avg # of iterations =  4.3

     total cpu time spent up to now is       27.1 secs

     total energy              =    -333.18443349 Ry
     estimated scf accuracy    <       0.00000019 Ry

     iteration #  6     ecut=    30.00 Ry     beta= 0.70
     Davidson diagonalization with overlap
     ethr =  4.29E-10,  avg # of iterations =  4.2

     total cpu time spent up to now is       27.5 secs

     total energy              =    -333.18443354 Ry
     estimated scf accuracy    <       0.00000002 Ry

     iteration #  7     ecut=    30.00 Ry     beta= 0.70
     Davidson diagonalization with overlap
     ethr =  3.74E-11,  avg # of iterations =  4.2

     total cpu time spent up to now is       27.9 secs

     End of self-consistent calculation

          k = 0.1250 0.1250 0.1250 (  1090 PWs)   bands (ev):

   -44.6561 -21.2656 -21.2636 -21.2629  -6.3272  -5.2516  -5.2492  -3.9518
    -3.9515  -3.9377  -3.7700  -3.7697   4.6695   7.3142   7.3152   8.0942
     9.1509   9.1548   9.9059   9.9660   9.9847  10.1238

          k = 0.1250 0.1250 0.3750 (  1095 PWs)   bands (ev):

   -44.6549 -21.3230 -21.2617 -21.2608  -5.9159  -5.1289  -5.0784  -4.0133
    -3.9469  -3.9345  -3.8684  -3.7387   3.9339   6.8453   7.3440   7.8603
     8.4648   8.7532   9.4027   9.9584  10.1276  10.8833

          k = 0.1250 0.3750 0.3750 (  1087 PWs)   bands (ev):

   -44.6536 -21.3196 -21.3175 -21.2591  -5.7001  -4.9990  -4.9294  -3.9866
    -3.9429  -3.8889  -3.7995  -3.6490   3.5633   6.8077   6.8582   7.1952
     7.5049   8.6884   9.4637   9.4960  10.0573  10.7410

          k = 0.3750 0.3750 0.3750 (  1082 PWs)   bands (ev):

   -44.6524 -21.3170 -21.3152 -21.3150  -5.2973  -5.1253  -5.1235  -3.8978
    -3.8975  -3.6078  -3.5411  -3.5401   4.1821   5.9548   5.9567   6.7229
     7.0398   7.0411   7.9970  10.6953  10.6982  10.7726

          k = 0.3750-0.1250 0.1250 (  1095 PWs)   bands (ev):

   -44.6549 -21.3212 -21.2631 -21.2611  -5.9175  -5.1309  -5.0757  -4.0132
    -3.9467  -3.9345  -3.8687  -3.7384   3.9347   6.8480   7.3499   7.8609
     8.4620   8.7591   9.3981   9.9592  10.1218  10.8804

          k = 0.3750-0.3750 0.1250 (  1087 PWs)   bands (ev):

   -44.6536 -21.3181 -21.3172 -21.2609  -5.7033  -4.9977  -4.9278  -3.9863
    -3.9428  -3.8885  -3.7994  -3.6502   3.5640   6.8214   6.8476   7.1949
     7.5043   8.6871   9.4675   9.4957  10.0555  10.7443

     highest occupied level (ev):    10.8833

!    total energy              =    -333.18443354 Ry
     estimated scf accuracy    <          2.0E-09 Ry

     The total energy is the sum of the following terms:
     one-electron contribution =     -76.42982778 Ry
     hartree contribution      =      66.20540327 Ry
     xc contribution           =     -49.64768577 Ry
     ewald contribution        =    -273.31232325 Ry

     convergence has been achieved in   7 iterations

     Forces acting on atoms (cartesian axes, Ry/au):

     atom    1 type  2   force =     0.00000000    0.00000000    0.00384270
     atom    2 type  3   force =     0.00000000    0.00000000   -0.00416222
     atom    3 type  1   force =     0.00000000    0.00000000    0.00157464
     atom    4 type  1   force =     0.00000000    0.00000000    0.00157464
     atom    5 type  1   force =     0.00000000    0.00000000   -0.00282976

     Total force =     0.005504     Total SCF correction =     0.000325


     Computing stress (Cartesian axis) and pressure

          total   stress  (Ry/bohr**3)                   (kbar)     P=      -15.02
  -0.00010323   0.00000000   0.00000000          -15.19        0.00        0.00
   0.00000000  -0.00010323   0.00000000            0.00      -15.19        0.00
   0.00000000   0.00000000  -0.00009979            0.00        0.00      -14.68

     Energy error            =      3.0E-04 Ry
     Gradient error          =      4.2E-03 Ry/Bohr

     number of scf cycles    =   5
     number of bfgs steps    =   4

     energy             old  =    -333.1841355879 Ry
     energy             new  =    -333.1844335411 Ry

     CASE: energy            _new < energy            _old

     new trust radius        =       0.0496020772 bohr
     new conv_thr            =       0.0000000030 Ry


ATOMIC_POSITIONS (angstrom)
Pb               0.0000000000        0.0000000000        0.0000000000    0   0   0
Ti               1.9375000000        1.9375000000        1.9446868163
O                0.0000000000        1.9375000000        1.9451559590
O                1.9375000000        0.0000000000        1.9451559590
O                1.9375000000        1.9375000000        0.0125784759


     Message from routine punch:
     Nothing written, as per user request (disk_io='none')
     NEW-OLD atomic charge density approx. for the potential

     total cpu time spent up to now is       29.3 secs

     Self-consistent Calculation

     iteration #  1     ecut=    30.00 Ry     beta= 0.70
     Davidson diagonalization with overlap
     ethr =  1.00E-06,  avg # of iterations =  9.5

     total cpu time spent up to now is       30.1 secs

     total energy              =    -333.18449338 Ry
     estimated scf accuracy    <       0.00030076 Ry

     iteration #  2     ecut=    30.00 Ry     beta= 0.70
     Davidson diagonalization with overlap
     ethr =  6.84E-07,  avg # of iterations =  2.0

     total cpu time spent up to now is       30.5 secs

     total energy              =    -333.18456201 Ry
     estimated scf accuracy    <       0.00002878 Ry

     iteration #  3     ecut=    30.00 Ry     beta= 0.70
     Davidson diagonalization with overlap
     ethr =  6.54E-08,  avg # of iterations =  2.3

     total cpu time spent up to now is       30.9 secs

     total energy              =    -333.18456774 Ry
     estimated scf accuracy    <       0.00000076 Ry

     iteration #  4     ecut=    30.00 Ry     beta= 0.70
     Davidson diagonalization with overlap
     ethr =  1.72E-09,  avg # of iterations =  6.2

     total cpu time spent up to now is       31.4 secs

     total energy              =    -333.18456822 Ry
     estimated scf accuracy    <       0.00000020 Ry

     iteration #  5     ecut=    30.00 Ry     beta= 0.70
     Davidson diagonalization with overlap
     ethr =  4.48E-10,  avg # of iterations =  4.0

     total cpu time spent up to now is       31.8 secs

     total energy              =    -333.18456827 Ry
     estimated scf accuracy    <          9.2E-09 Ry

     iteration #  6     ecut=    30.00 Ry     beta= 0.70
     Davidson diagonalization with overlap
     ethr =  2.09E-11,  avg # of iterations =  5.8

     total cpu time spent up to now is       32.3 secs

     total energy              =    -333.18456827 Ry
     estimated scf accuracy    <       0.00000002 Ry

     iteration #  7     ecut=    30.00 Ry     beta= 0.70
     Davidson diagonalization with overlap
     ethr =  2.09E-11,  avg # of iterations =  4.5

     total cpu time spent up to now is       32.7 secs

     End of self-consistent calculation

          k = 0.1250 0.1250 0.1250 (  1090 PWs)   bands (ev):

   -44.6585 -21.2669 -21.2654 -21.2653  -6.3272  -5.2509  -5.2508  -3.9510
    -3.9510  -3.9371  -3.7695  -3.7694   4.6704   7.3150   7.3150   8.0949
     9.1555   9.1556   9.9088   9.9806   9.9812  10.1154

          k = 0.1250 0.1250 0.3750 (  1095 PWs)   bands (ev):

   -44.6572 -21.3238 -21.2642 -21.2632  -5.9171  -5.1307  -5.0765  -4.0126
    -3.9461  -3.9339  -3.8680  -3.7380   3.9355   6.8462   7.3486   7.8612
     8.4626   8.7567   9.4009   9.9607  10.1251  10.8812

          k = 0.1250 0.3750 0.3750 (  1087 PWs)   bands (ev):

   -44.6560 -21.3206 -21.3197 -21.2615  -5.7013  -4.9984  -4.9288  -3.9859
    -3.9422  -3.8882  -3.7989  -3.6489   3.5642   6.8198   6.8459   7.1950
     7.5048   8.6867   9.4650   9.4953  10.0567  10.7430

          k = 0.3750 0.3750 0.3750 (  1082 PWs)   bands (ev):

   -44.6547 -21.3179 -21.3175 -21.3174  -5.2969  -5.1242  -5.1241  -3.8971
    -3.8971  -3.6072  -3.5400  -3.5400   4.1828   5.9560   5.9561   6.7241
     7.0362   7.0362   7.9965  10.6975  10.6976  10.7735

          k = 0.3750-0.1250 0.1250 (  1095 PWs)   bands (ev):

   -44.6572 -21.3237 -21.2642 -21.2632  -5.9170  -5.1307  -5.0766  -4.0126
    -3.9461  -3.9339  -3.8680  -3.7379   3.9356   6.8461   7.3485   7.8613
     8.4626   8.7567   9.4009   9.9607  10.1251  10.8812

          k = 0.3750-0.3750 0.1250 (  1087 PWs)   bands (ev):

   -44.6560 -21.3205 -21.3196 -21.2616  -5.7012  -4.9985  -4.9289  -3.9859
    -3.9422  -3.8881  -3.7988  -3.6490   3.5641   6.8205   6.8453   7.1949
     7.5048   8.6868   9.4655   9.4950  10.0568  10.7430

     highest occupied level (ev):    10.8812

!    total energy              =    -333.18456827 Ry
     estimated scf accuracy    <          5.2E-10 Ry

     The total energy is the sum of the following terms:
     one-electron contribution =     -76.42256350 Ry
     hartree contribution      =      66.20144930 Ry
     xc contribution           =     -49.64742243 Ry
     ewald contribution        =    -273.31603165 Ry

     convergence has been achieved in   7 iterations

     Forces acting on atoms (cartesian axes, Ry/au):

     atom    1 type  2   force =     0.00000000    0.00000000    0.00058555
     atom    2 type  3   force =     0.00000000    0.00000000   -0.00065500
     atom    3 type  1   force =     0.00000000    0.00000000    0.00126267
     atom    4 type  1   force =     0.00000000    0.00000000    0.00126267
     atom    5 type  1   force =     0.00000000    0.00000000   -0.00245589

     Total force =     0.003106     Total SCF correction =     0.000153


     Computing stress (Cartesian axis) and pressure

          total   stress  (Ry/bohr**3)                   (kbar)     P=      -15.20
  -0.00010342   0.00000000   0.00000000          -15.21        0.00        0.00
   0.00000000  -0.00010342   0.00000000            0.00      -15.21        0.00
   0.00000000   0.00000000  -0.00010323            0.00        0.00      -15.19

     Energy error            =      1.3E-04 Ry
     Gradient error          =      2.5E-03 Ry/Bohr

     number of scf cycles    =   6
     number of bfgs steps    =   5

     energy             old  =    -333.1844335411 Ry
     energy             new  =    -333.1845682705 Ry

     CASE: energy            _new < energy            _old

     new trust radius        =       0.0129781047 bohr
     new conv_thr            =       0.0000000013 Ry


ATOMIC_POSITIONS (angstrom)
Pb               0.0000000000        0.0000000000        0.0000000000    0   0   0
Ti               1.9375000000        1.9375000000        1.9378190990
O                0.0000000000        1.9375000000        1.9466560877
O                1.9375000000        0.0000000000        1.9466560877
O                1.9375000000        1.9375000000        0.0115473310


     Message from routine punch:
     Nothing written, as per user request (disk_io='none')
     NEW-OLD atomic charge density approx. for the potential

     total cpu time spent up to now is       34.2 secs

     Self-consistent Calculation

     iteration #  1     ecut=    30.00 Ry     beta= 0.70
     Davidson diagonalization with overlap
     ethr =  1.00E-06,  avg # of iterations =  6.3

     Threshold (ethr) on eigenvalues was too large:
     Diagonalizing with lowered threshold

     Davidson diagonalization with overlap
     ethr =  2.98E-08,  avg # of iterations =  4.5

     total cpu time spent up to now is       35.0 secs

     total energy              =    -333.18457653 Ry
     estimated scf accuracy    <       0.00001381 Ry

     iteration #  2     ecut=    30.00 Ry     beta= 0.70
     Davidson diagonalization with overlap
     ethr =  3.14E-08,  avg # of iterations =  2.0

     total cpu time spent up to now is       35.4 secs

     total energy              =    -333.18457946 Ry
     estimated scf accuracy    <       0.00000124 Ry

     iteration #  3     ecut=    30.00 Ry     beta= 0.70
     Davidson diagonalization with overlap
     ethr =  2.81E-09,  avg # of iterations =  2.3

     total cpu time spent up to now is       35.8 secs

     total energy              =    -333.18457971 Ry
     estimated scf accuracy    <       0.00000004 Ry

     iteration #  4     ecut=    30.00 Ry     beta= 0.70
     Davidson diagonalization with overlap
     ethr =  8.99E-11,  avg # of iterations =  5.7

     total cpu time spent up to now is       36.3 secs

     total energy              =    -333.18457974 Ry
     estimated scf accuracy    <          6.6E-09 Ry

     iteration #  5     ecut=    30.00 Ry     beta= 0.70
     Davidson diagonalization with overlap
     ethr =  1.50E-11,  avg # of iterations =  4.3

     total cpu time spent up to now is       36.7 secs

     End of self-consistent calculation

          k = 0.1250 0.1250 0.1250 (  1090 PWs)   bands (ev):

   -44.6579 -21.2665 -21.2650 -21.2647  -6.3272  -5.2509  -5.2507  -3.9511
    -3.9510  -3.9372  -3.7695  -3.7694   4.6704   7.3149   7.3151   8.0949
     9.1549   9.1554   9.9083   9.9775   9.9815  10.1174

          k = 0.1250 0.1250 0.3750 (  1095 PWs)   bands (ev):

   -44.6566 -21.3236 -21.2636 -21.2626  -5.9169  -5.1305  -5.0767  -4.0127
    -3.9462  -3.9339  -3.8680  -3.7381   3.9352   6.8462   7.3479   7.8613
     8.4629   8.7561   9.4010   9.9604  10.1254  10.8814

          k = 0.1250 0.3750 0.3750 (  1087 PWs)   bands (ev):

   -44.6554 -21.3202 -21.3192 -21.2609  -5.7011  -4.9985  -4.9288  -3.9860
    -3.9422  -3.8882  -3.7989  -3.6488   3.5641   6.8163   6.8493   7.1951
     7.5048   8.6869   9.4651   9.4949  10.0567  10.7427

          k = 0.3750 0.3750 0.3750 (  1082 PWs)   bands (ev):

   -44.6541 -21.3175 -21.3170 -21.3168  -5.2969  -5.1243  -5.1242  -3.8971
    -3.8971  -3.6073  -3.5401  -3.5399   4.1828   5.9559   5.9561   6.7239
     7.0366   7.0368   7.9964  10.6971  10.6976  10.7733

          k = 0.3750-0.1250 0.1250 (  1095 PWs)   bands (ev):

   -44.6566 -21.3231 -21.2638 -21.2628  -5.9171  -5.1307  -5.0765  -4.0127
    -3.9461  -3.9339  -3.8681  -3.7380   3.9355   6.8463   7.3486   7.8613
     8.4625   8.7570   9.4003   9.9605  10.1245  10.8811

          k = 0.3750-0.3750 0.1250 (  1087 PWs)   bands (ev):

   -44.6554 -21.3199 -21.3190 -21.2614  -5.7014  -4.9984  -4.9288  -3.9859
    -3.9422  -3.8881  -3.7988  -3.6491   3.5641   6.8207   6.8456   7.1948
     7.5047   8.6869   9.4656   9.4950  10.0566  10.7431

     highest occupied level (ev):    10.8814

!    total energy              =    -333.18457974 Ry
     estimated scf accuracy    <          9.3E-10 Ry

     The total energy is the sum of the following terms:
     one-electron contribution =     -76.42473537 Ry
     hartree contribution      =      66.20267576 Ry
     xc contribution           =     -49.64753898 Ry
     ewald contribution        =    -273.31498114 Ry

     convergence has been achieved in   5 iterations

     Forces acting on atoms (cartesian axes, Ry/au):

     atom    1 type  2   force =     0.00000000    0.00000000   -0.00040163
     atom    2 type  3   force =     0.00000000    0.00000000    0.00020393
     atom    3 type  1   force =     0.00000000    0.00000000    0.00090594
     atom    4 type  1   force =     0.00000000    0.00000000    0.00090594
     atom    5 type  1   force =     0.00000000    0.00000000   -0.00161417

     Total force =     0.002071     Total SCF correction =     0.000077


     Computing stress (Cartesian axis) and pressure

          total   stress  (Ry/bohr**3)                   (kbar)     P=      -15.15
  -0.00010347   0.00000000   0.00000000          -15.22        0.00        0.00
   0.00000000  -0.00010347   0.00000000            0.00      -15.22        0.00
   0.00000000   0.00000000  -0.00010199            0.00        0.00      -15.00

     Energy error            =      1.1E-05 Ry
     Gradient error          =      1.6E-03 Ry/Bohr

     number of scf cycles    =   7
     number of bfgs steps    =   6

     energy             old  =    -333.1845682705 Ry
     energy             new  =    -333.1845797418 Ry

     CASE: energy            _new < energy            _old

     new trust radius        =       0.0027644555 bohr
     new conv_thr            =       0.0000000010 Ry


ATOMIC_POSITIONS (angstrom)
Pb               0.0000000000        0.0000000000        0.0000000000    0   0   0
Ti               1.9375000000        1.9375000000        1.9363562122
O                0.0000000000        1.9375000000        1.9476140701
O                1.9375000000        0.0000000000        1.9476140701
O                1.9375000000        1.9375000000        0.0103094641


     Message from routine punch:
     Nothing written, as per user request (disk_io='none')
     NEW-OLD atomic charge density approx. for the potential

     total cpu time spent up to now is       38.2 secs

     Self-consistent Calculation

     iteration #  1     ecut=    30.00 Ry     beta= 0.70
     Davidson diagonalization with overlap
     ethr =  1.00E-06,  avg # of iterations =  4.0

     Threshold (ethr) on eigenvalues was too large:
     Diagonalizing with lowered threshold

     Davidson diagonalization with overlap
     ethr =  5.26E-10,  avg # of iterations =  7.0

     total cpu time spent up to now is       39.0 secs

     total energy              =    -333.18458429 Ry
     estimated scf accuracy    <       0.00000039 Ry

     iteration #  2     ecut=    30.00 Ry     beta= 0.70
     Davidson diagonalization with overlap
     ethr =  8.93E-10,  avg # of iterations =  2.0

     total cpu time spent up to now is       39.4 secs

     total energy              =    -333.18458434 Ry
     estimated scf accuracy    <       0.00000004 Ry

     iteration #  3     ecut=    30.00 Ry     beta= 0.70
     Davidson diagonalization with overlap
     ethr =  9.35E-11,  avg # of iterations =  4.3

     total cpu time spent up to now is       39.9 secs

     total energy              =    -333.18458434 Ry
     estimated scf accuracy    <       0.00000003 Ry

     iteration #  4     ecut=    30.00 Ry     beta= 0.70
     Davidson diagonalization with overlap
     ethr =  6.34E-11,  avg # of iterations =  4.2

     total cpu time spent up to now is       40.4 secs

     total energy              =    -333.18458435 Ry
     estimated scf accuracy    <          3.9E-09 Ry

     iteration #  5     ecut=    30.00 Ry     beta= 0.70
     Davidson diagonalization with overlap
     ethr =  8.87E-12,  avg # of iterations =  3.7

     total cpu time spent up to now is       40.8 secs

     End of self-consistent calculation

          k = 0.1250 0.1250 0.1250 (  1090 PWs)   bands (ev):

   -44.6578 -21.2665 -21.2650 -21.2647  -6.3273  -5.2509  -5.2506  -3.9510
    -3.9510  -3.9371  -3.7695  -3.7693   4.6704   7.3148   7.3151   8.0947
     9.1547   9.1553   9.9081   9.9766   9.9817  10.1180

          k = 0.1250 0.1250 0.3750 (  1095 PWs)   bands (ev):

   -44.6566 -21.3236 -21.2635 -21.2626  -5.9169  -5.1304  -5.0768  -4.0126
    -3.9461  -3.9339  -3.8680  -3.7380   3.9352   6.8461   7.3476   7.8612
     8.4631   8.7559   9.4011   9.9602  10.1254  10.8815

          k = 0.1250 0.3750 0.3750 (  1087 PWs)   bands (ev):

   -44.6554 -21.3202 -21.3192 -21.2609  -5.7011  -4.9986  -4.9289  -3.9859
    -3.9422  -3.8882  -3.7988  -3.6488   3.5641   6.8154   6.8502   7.1951
     7.5048   8.6870   9.4652   9.4948  10.0567  10.7426

          k = 0.3750 0.3750 0.3750 (  1082 PWs)   bands (ev):

   -44.6541 -21.3176 -21.3170 -21.3168  -5.2970  -5.1244  -5.1242  -3.8971
    -3.8970  -3.6072  -3.5401  -3.5399   4.1828   5.9558   5.9561   6.7238
     7.0367   7.0371   7.9965  10.6970  10.6975  10.7732

          k = 0.3750-0.1250 0.1250 (  1095 PWs)   bands (ev):

   -44.6566 -21.3231 -21.2639 -21.2627  -5.9172  -5.1308  -5.0765  -4.0126
    -3.9461  -3.9339  -3.8680  -3.7379   3.9355   6.8464   7.3486   7.8613
     8.4624   8.7572   9.4002   9.9604  10.1243  10.8810

          k = 0.3750-0.3750 0.1250 (  1087 PWs)   bands (ev):

   -44.6554 -21.3199 -21.3190 -21.2614  -5.7016  -4.9985  -4.9288  -3.9859
    -3.9421  -3.8880  -3.7987  -3.6491   3.5642   6.8207   6.8456   7.1948
     7.5047   8.6869   9.4657   9.4949  10.0565  10.7431

     highest occupied level (ev):    10.8815

!    total energy              =    -333.18458435 Ry
     estimated scf accuracy    <          3.8E-10 Ry

     The total energy is the sum of the following terms:
     one-electron contribution =     -76.42424210 Ry
     hartree contribution      =      66.20245078 Ry
     xc contribution           =     -49.64754406 Ry
     ewald contribution        =    -273.31524897 Ry

     convergence has been achieved in   5 iterations

     Forces acting on atoms (cartesian axes, Ry/au):

     atom    1 type  2   force =     0.00000000    0.00000000   -0.00069931
     atom    2 type  3   force =     0.00000000    0.00000000    0.00036679
     atom    3 type  1   force =     0.00000000    0.00000000    0.00054197
     atom    4 type  1   force =     0.00000000    0.00000000    0.00054197
     atom    5 type  1   force =     0.00000000    0.00000000   -0.00075143

     Total force =     0.001134     Total SCF correction =     0.000012


     Computing stress (Cartesian axis) and pressure

          total   stress  (Ry/bohr**3)                   (kbar)     P=      -15.18
  -0.00010367   0.00000000   0.00000000          -15.25        0.00        0.00
   0.00000000  -0.00010367   0.00000000            0.00      -15.25        0.00
   0.00000000   0.00000000  -0.00010215            0.00        0.00      -15.03

     Energy error            =      4.6E-06 Ry
     Gradient error          =      7.5E-04 Ry/Bohr

     bfgs converged in   8 scf cycles and   7 bfgs steps
     (criteria: energy <  1.0E-04 Ry, force <  1.0E-03 Ry/Bohr)

     End of BFGS Geometry Optimization

     Final energy             =    -333.1845843503 Ry

     File /home/bond/Work/Lab4/Problem2/PbTiO3_a_3.875_ecut_30_nk_4_displ_0.025_RelaxTi/pwscf.bfgs deleted, as requested
Begin final coordinates

ATOMIC_POSITIONS (angstrom)
Pb               0.0000000000        0.0000000000        0.0000000000    0   0   0
Ti               1.9375000000        1.9375000000        1.9363562122
O                0.0000000000        1.9375000000        1.9476140701
O                1.9375000000        0.0000000000        1.9476140701
O                1.9375000000        1.9375000000        0.0103094641
End final coordinates


     Message from routine punch:
     Nothing written, as per user request (disk_io='none')

     init_run     :      1.00s CPU      1.18s WALL (       1 calls)
     electrons    :     24.80s CPU     28.51s WALL (       8 calls)
     update_pot   :      0.03s CPU      0.05s WALL (       7 calls)
     forces       :      1.06s CPU      1.25s WALL (       8 calls)
     stress       :      9.26s CPU      9.88s WALL (       8 calls)

     Called by init_run:
     wfcinit      :      0.09s CPU      0.09s WALL (       1 calls)
     potinit      :      0.09s CPU      0.10s WALL (       1 calls)
     hinit0       :      0.63s CPU      0.68s WALL (       1 calls)

     Called by electrons:
     c_bands      :     11.46s CPU     12.22s WALL (      63 calls)
     sum_band     :      7.56s CPU      9.09s WALL (      63 calls)
     v_of_rho     :      0.20s CPU      0.21s WALL (      69 calls)
     newd         :      6.09s CPU      7.75s WALL (      69 calls)
     mix_rho      :      0.10s CPU      0.11s WALL (      63 calls)

     Called by c_bands:
     init_us_2    :      0.31s CPU      0.34s WALL (     858 calls)
     cegterg      :     10.81s CPU     11.53s WALL (     378 calls)

     Called by *egterg:
     cdiaghg      :      1.40s CPU      1.48s WALL (    2030 calls)
     h_psi        :      7.53s CPU      8.07s WALL (    2090 calls)
     s_psi        :      0.31s CPU      0.33s WALL (    2090 calls)
     g_psi        :      0.05s CPU      0.06s WALL (    1706 calls)

     Called by h_psi:
     h_psi:calbec :      0.54s CPU      0.58s WALL (    2090 calls)
     vloc_psi     :      6.59s CPU      7.05s WALL (    2090 calls)
     add_vuspsi   :      0.34s CPU      0.37s WALL (    2090 calls)

     General routines
     calbec       :      0.91s CPU      0.98s WALL (    3284 calls)
     fft          :      0.48s CPU      0.51s WALL (     447 calls)
     ffts         :      0.06s CPU      0.06s WALL (     132 calls)
     fftw         :      6.12s CPU      6.56s WALL (   62934 calls)
     interpolate  :      0.10s CPU      0.10s WALL (      69 calls)

     Parallel routines

     PWSCF        :     37.22s CPU     42.15s WALL


   This run was terminated on:  13:51:36  21Oct2025            

=------------------------------------------------------------------------------=
   JOB DONE.
=------------------------------------------------------------------------------=
