
     Program PWSCF v.7.4.1 starts on 21Oct2025 at 18: 4:44 

     This program is part of the open-source Quantum ESPRESSO suite
     for quantum simulation of materials; please cite
         "P. Giannozzi et al., J. Phys.:Condens. Matter 21 395502 (2009);
         "P. Giannozzi et al., J. Phys.:Condens. Matter 29 465901 (2017);
         "P. Giannozzi et al., J. Chem. Phys. 152 154105 (2020);
          URL http://www.quantum-espresso.org", 
     in publications or presentations arising from this work. More details at
     http://www.quantum-espresso.org/quote

     Parallel version (MPI), running on     2 processors

     MPI processes distributed on     1 nodes
     224 MiB available memory on the printing compute node when the environment starts

     Waiting for input...
     Reading input from standard input

     Current dimensions of program PWSCF are:
     Max number of different atomic species (ntypx) = 10
     Max number of k-points (npk) =  40000
     Max angular momentum in pseudopotentials (lmaxx) =  4
     Message from routine setup:
     using ibrav=0 with symmetry is DISCOURAGED, use correct ibrav instead

     R & G space division:  proc/nbgrp/npool/nimage =       2
     Subspace diagonalization in iterative solution of the eigenvalue problem:
     a serial algorithm will be used


     Parallelization info
     --------------------
     sticks:   dense  smooth     PW     G-vecs:    dense   smooth      PW
     Min         318     156     60                 5208     1847     410
     Max         319     157     61                 5209     1848     411
     Sum         637     313    121                10417     3695     821

     Using Slab Decomposition



     bravais-lattice index     =            0
     lattice parameter (alat)  =       5.3450  a.u.
     unit-cell volume          =     107.9734 (a.u.)^3
     number of atoms/cell      =            1
     number of atomic types    =            1
     number of electrons       =        11.00
     number of Kohn-Sham states=           10
     kinetic-energy cutoff     =      40.0000  Ry
     charge density cutoff     =     320.0000  Ry
     scf convergence threshold =      1.0E-07
     mixing beta               =       0.7000
     number of iterations used =            8  plain     mixing
     energy convergence thresh.=      1.0E-04
     force convergence thresh. =      1.0E-03
     press convergence thresh. =      5.0E-01
     Exchange-correlation=  SLA  PZ   NOGX NOGC
                           (   1   1   0   0   0   0   0)
     nstep                     =           50


     celldm(1)=   5.344953  celldm(2)=   0.000000  celldm(3)=   0.000000
     celldm(4)=   0.000000  celldm(5)=   0.000000  celldm(6)=   0.000000

     crystal axes: (cart. coord. in units of alat)
               a(1) = (   0.000000   0.707107   0.707107 )  
               a(2) = (   0.707107   0.000000   0.707107 )  
               a(3) = (   0.707107   0.707107   0.000000 )  

     reciprocal axes: (cart. coord. in units 2 pi/alat)
               b(1) = ( -0.707107  0.707107  0.707107 )  
               b(2) = (  0.707107 -0.707107  0.707107 )  
               b(3) = (  0.707107  0.707107 -0.707107 )  


     PseudoPot. # 1 for Au read from file:
     /home/bond/Software/QE/qe-7.4.1/pseudo/Au.pz-d-rrkjus.UPF
     MD5 check sum: 424ffd4ac9c90487cbadcd287136c95b
     Pseudo is Ultrasoft, Zval = 11.0
     Generated by new atomic code, or converted to UPF format
     Using radial grid of 1279 points,  3 beta functions with: 
                l(1) =   2
                l(2) =   2
                l(3) =   1
     Q(r) pseudized with 0 coefficients 


     atomic species   valence    mass     pseudopotential
     Au               11.00   196.96657     Au( 1.00)

     48 Sym. Ops., with inversion, found



   Cartesian axes

     site n.     atom                  positions (alat units)
         1        Au     tau(   1) = (   0.0000000   0.0000000   0.0000000  )

     number of k points=   182  Methfessel-Paxton smearing, width (Ry)=  0.0200

     Number of k-points >= 100: set verbosity='high' to print them.

     Dense  grid:    10417 G-vectors     FFT dimensions: (  32,  32,  32)

     Smooth grid:     3695 G-vectors     FFT dimensions: (  24,  24,  24)

     Estimated max dynamical RAM per process >      20.17 MB

     Estimated total dynamical RAM >      40.34 MB

     Initial potential from superposition of free atoms

     starting charge      10.9999, renormalised to      11.0000
     Starting wfcs are    9 randomized atomic wfcs +    1 random wfcs

     total cpu time spent up to now is        1.6 secs

     Self-consistent Calculation

     iteration #  1     ecut=    40.00 Ry     beta= 0.70
     Davidson diagonalization with overlap
     ethr =  1.00E-02,  avg # of iterations =  5.2

     Threshold (ethr) on eigenvalues was too large:
     Diagonalizing with lowered threshold

     Davidson diagonalization with overlap
     ethr =  6.89E-04,  avg # of iterations =  1.0

     total cpu time spent up to now is        5.2 secs

     total energy              =     -66.84567077 Ry
     estimated scf accuracy    <       0.07683276 Ry

     iteration #  2     ecut=    40.00 Ry     beta= 0.70
     Davidson diagonalization with overlap
     ethr =  6.98E-04,  avg # of iterations =  2.0

     total cpu time spent up to now is        6.9 secs

     total energy              =     -66.86833817 Ry
     estimated scf accuracy    <       0.02422843 Ry

     iteration #  3     ecut=    40.00 Ry     beta= 0.70
     Davidson diagonalization with overlap
     ethr =  2.20E-04,  avg # of iterations =  1.7

     total cpu time spent up to now is        8.3 secs

     total energy              =     -66.87301421 Ry
     estimated scf accuracy    <       0.00002879 Ry

     iteration #  4     ecut=    40.00 Ry     beta= 0.70
     Davidson diagonalization with overlap
     ethr =  2.62E-07,  avg # of iterations =  3.0

     total cpu time spent up to now is       10.1 secs

     total energy              =     -66.87303087 Ry
     estimated scf accuracy    <       0.00000262 Ry

     iteration #  5     ecut=    40.00 Ry     beta= 0.70
     Davidson diagonalization with overlap
     ethr =  2.38E-08,  avg # of iterations =  1.0

     total cpu time spent up to now is       11.8 secs

     End of self-consistent calculation

     Number of k-points >= 100: set verbosity='high' to print the bands.

     the Fermi energy is    17.0915 ev

!    total energy              =     -66.87303102 Ry
     estimated scf accuracy    <       0.00000005 Ry
     smearing contrib. (-TS)   =      -0.00000910 Ry
     internal energy E=F+TS    =     -66.87302193 Ry

     The total energy is F=E-TS. E is the sum of the following terms:
     one-electron contribution =      10.18309584 Ry
     hartree contribution      =       6.83074436 Ry
     xc contribution           =     -10.49417526 Ry
     ewald contribution        =     -73.39268687 Ry

     convergence has been achieved in   5 iterations


     Computing stress (Cartesian axis) and pressure

          total   stress  (Ry/bohr**3)                   (kbar)     P=       73.69
   0.00050094   0.00000000   0.00000000           73.69        0.00        0.00
   0.00000000   0.00050094   0.00000000            0.00       73.69        0.00
   0.00000000   0.00000000   0.00050094            0.00        0.00       73.69


     BFGS Geometry Optimization
     Energy error            =      2.0E-03 Ry
     Gradient error          =      0.0E+00 Ry/Bohr
     Cell gradient error     =      7.4E+01 kbar

     number of scf cycles    =   1
     number of bfgs steps    =   0

     enthalpy           new  =     -66.8730310213 Ry

     new trust radius        =       0.0260266454 bohr
     new conv_thr            =       0.0000001000 Ry

     new unit-cell volume =    112.08102 a.u.^3 (    16.60869 Ang^3 )
     density =     19.69274 g/cm^3

CELL_PARAMETERS (angstrom)
   0.000000000   2.025047242   2.025047242
   2.025047242   0.000000000   2.025047242
   2.025047242   2.025047242   0.000000000

ATOMIC_POSITIONS (angstrom)
Au               0.0000000000        0.0000000000        0.0000000000    0   0   0


     Message from routine punch:
     Nothing written, as per user request (disk_io='none')
     NEW-OLD atomic charge density approx. for the potential
     New effective cutoffs (rho, wfc):  310.02   39.01

     total cpu time spent up to now is       12.2 secs

     Self-consistent Calculation

     iteration #  1     ecut=    40.00 Ry     beta= 0.70
     Davidson diagonalization with overlap
     ethr =  1.00E-06,  avg # of iterations =  3.6

     Threshold (ethr) on eigenvalues was too large:
     Diagonalizing with lowered threshold

     Davidson diagonalization with overlap
     ethr =  7.25E-09,  avg # of iterations =  1.2

     total cpu time spent up to now is       16.3 secs

     total energy              =     -66.87399715 Ry
     estimated scf accuracy    <       0.00000078 Ry

     iteration #  2     ecut=    40.00 Ry     beta= 0.70
     Davidson diagonalization with overlap
     ethr =  7.06E-09,  avg # of iterations =  2.0

     total cpu time spent up to now is       18.5 secs

     total energy              =     -66.87399727 Ry
     estimated scf accuracy    <       0.00000017 Ry

     iteration #  3     ecut=    40.00 Ry     beta= 0.70
     Davidson diagonalization with overlap
     ethr =  1.57E-09,  avg # of iterations =  1.9

     total cpu time spent up to now is       20.7 secs

     End of self-consistent calculation

     Number of k-points >= 100: set verbosity='high' to print the bands.

     the Fermi energy is    16.1801 ev

!    total energy              =     -66.87399731 Ry
     estimated scf accuracy    <       0.00000002 Ry
     smearing contrib. (-TS)   =       0.00001378 Ry
     internal energy E=F+TS    =     -66.87401109 Ry

     The total energy is F=E-TS. E is the sum of the following terms:
     one-electron contribution =       8.91646448 Ry
     hartree contribution      =       7.15526345 Ry
     xc contribution           =     -10.46082571 Ry
     ewald contribution        =     -72.48491331 Ry

     convergence has been achieved in   3 iterations


     Computing stress (Cartesian axis) and pressure

          total   stress  (Ry/bohr**3)                   (kbar)     P=       -3.85
  -0.00002620  -0.00000000   0.00000000           -3.85       -0.00        0.00
  -0.00000000  -0.00002620   0.00000000           -0.00       -3.85        0.00
   0.00000000   0.00000000  -0.00002620            0.00        0.00       -3.85

     Energy error            =      9.7E-04 Ry
     Gradient error          =      0.0E+00 Ry/Bohr
     Cell gradient error     =      3.9E+00 kbar

     number of scf cycles    =   2
     number of bfgs steps    =   1

     enthalpy           old  =     -66.8730310213 Ry
     enthalpy           new  =     -66.8739973101 Ry

     CASE: enthalpy          _new < enthalpy          _old

     new trust radius        =       0.0013326398 bohr
     new conv_thr            =       0.0000000010 Ry

     new unit-cell volume =    111.86953 a.u.^3 (    16.57735 Ang^3 )
     density =     19.72997 g/cm^3

CELL_PARAMETERS (angstrom)
   0.000000000   2.023772706   2.023772706
   2.023772706   0.000000000   2.023772706
   2.023772706   2.023772706   0.000000000

ATOMIC_POSITIONS (angstrom)
Au               0.0000000000        0.0000000000        0.0000000000    0   0   0


     Message from routine punch:
     Nothing written, as per user request (disk_io='none')
     NEW-OLD atomic charge density approx. for the potential
     New effective cutoffs (rho, wfc):  310.41   39.06

     total cpu time spent up to now is       21.3 secs

     Self-consistent Calculation

     iteration #  1     ecut=    40.00 Ry     beta= 0.70
     Davidson diagonalization with overlap
     ethr =  1.00E-06,  avg # of iterations =  2.0

     Threshold (ethr) on eigenvalues was too large:
     Diagonalizing with lowered threshold

     Davidson diagonalization with overlap
     ethr =  1.93E-10,  avg # of iterations =  1.4

     total cpu time spent up to now is       26.0 secs

     total energy              =     -66.87399928 Ry
     estimated scf accuracy    <       0.00000002 Ry

     iteration #  2     ecut=    40.00 Ry     beta= 0.70
     Davidson diagonalization with overlap
     ethr =  1.63E-10,  avg # of iterations =  2.0

     total cpu time spent up to now is       28.2 secs

     total energy              =     -66.87399929 Ry
     estimated scf accuracy    <          6.5E-09 Ry

     iteration #  3     ecut=    40.00 Ry     beta= 0.70
     Davidson diagonalization with overlap
     ethr =  5.88E-11,  avg # of iterations =  1.5

     total cpu time spent up to now is       30.0 secs

     End of self-consistent calculation

     Number of k-points >= 100: set verbosity='high' to print the bands.

     the Fermi energy is    16.2251 ev

!    total energy              =     -66.87399929 Ry
     estimated scf accuracy    <          4.2E-11 Ry
     smearing contrib. (-TS)   =       0.00001230 Ry
     internal energy E=F+TS    =     -66.87401159 Ry

     The total energy is F=E-TS. E is the sum of the following terms:
     one-electron contribution =       8.98016010 Ry
     hartree contribution      =       7.13890731 Ry
     xc contribution           =     -10.46251601 Ry
     ewald contribution        =     -72.53056300 Ry

     convergence has been achieved in   3 iterations


     Computing stress (Cartesian axis) and pressure

          total   stress  (Ry/bohr**3)                   (kbar)     P=        0.42
   0.00000286  -0.00000000  -0.00000000            0.42       -0.00       -0.00
  -0.00000000   0.00000286  -0.00000000           -0.00        0.42       -0.00
  -0.00000000  -0.00000000   0.00000286           -0.00       -0.00        0.42

     Energy error            =      2.0E-06 Ry
     Gradient error          =      0.0E+00 Ry/Bohr
     Cell gradient error     =      4.2E-01 kbar

     bfgs converged in   3 scf cycles and   2 bfgs steps
     (criteria: energy <  1.0E-04 Ry, force <  1.0E-03 Ry/Bohr, cell <  5.0E-01 kbar)

     End of BFGS Geometry Optimization

     Final enthalpy           =     -66.8739992893 Ry

     File /home/bond/Work/Lab4/Problem3/Au_nk_12/pwscf.bfgs deleted, as requested
Begin final coordinates
     new unit-cell volume =    111.86953 a.u.^3 (    16.57735 Ang^3 )
     density =     19.72997 g/cm^3

CELL_PARAMETERS (angstrom)
   0.000000000   2.023772706   2.023772706
   2.023772706   0.000000000   2.023772706
   2.023772706   2.023772706   0.000000000

ATOMIC_POSITIONS (angstrom)
Au               0.0000000000        0.0000000000        0.0000000000    0   0   0
End final coordinates


     Message from routine punch:
     Nothing written, as per user request (disk_io='none')

     Final scf calculation at the relaxed structure.
     The G-vectors are recalculated for the final unit cell
     Results may differ from those at the preceding step.

     Parallelization info
     --------------------
     sticks:   dense  smooth     PW     G-vecs:    dense   smooth      PW
     Min         324     156     60                 5423     1917     434
     Max         325     157     61                 5426     1922     435
     Sum         649     313    121                10849     3839     869

     Using Slab Decomposition



     bravais-lattice index     =            0
     lattice parameter (alat)  =       5.3450  a.u.
     unit-cell volume          =     111.8695 (a.u.)^3
     number of atoms/cell      =            1
     number of atomic types    =            1
     number of electrons       =        11.00
     number of Kohn-Sham states=           10
     kinetic-energy cutoff     =      40.0000  Ry
     charge density cutoff     =     320.0000  Ry
     scf convergence threshold =      1.0E-09
     mixing beta               =       0.7000
     number of iterations used =            8  plain     mixing
     press convergence thresh. =      5.0E-01
     Exchange-correlation=  SLA  PZ   NOGX NOGC
                           (   1   1   0   0   0   0   0)

     celldm(1)=   5.344953  celldm(2)=   0.000000  celldm(3)=   0.000000
     celldm(4)=   0.000000  celldm(5)=   0.000000  celldm(6)=   0.000000

     crystal axes: (cart. coord. in units of alat)
               a(1) = (   0.000000   0.715512   0.715512 )  
               a(2) = (   0.715512   0.000000   0.715512 )  
               a(3) = (   0.715512   0.715512   0.000000 )  

     reciprocal axes: (cart. coord. in units 2 pi/alat)
               b(1) = ( -0.698801  0.698801  0.698801 )  
               b(2) = (  0.698801 -0.698801  0.698801 )  
               b(3) = (  0.698801  0.698801 -0.698801 )  


     PseudoPot. # 1 for Au read from file:
     /home/bond/Software/QE/qe-7.4.1/pseudo/Au.pz-d-rrkjus.UPF
     MD5 check sum: 424ffd4ac9c90487cbadcd287136c95b
     Pseudo is Ultrasoft, Zval = 11.0
     Generated by new atomic code, or converted to UPF format
     Using radial grid of 1279 points,  3 beta functions with: 
                l(1) =   2
                l(2) =   2
                l(3) =   1
     Q(r) pseudized with 0 coefficients 


     atomic species   valence    mass     pseudopotential
     Au               11.00   196.96657     Au( 1.00)

     48 Sym. Ops., with inversion, found



   Cartesian axes

     site n.     atom                  positions (alat units)
         1        Au     tau(   1) = (   0.0000000   0.0000000   0.0000000  )

     number of k points=   182  Methfessel-Paxton smearing, width (Ry)=  0.0200

     Number of k-points >= 100: set verbosity='high' to print them.

     Dense  grid:    10849 G-vectors     FFT dimensions: (  32,  32,  32)

     Smooth grid:     3839 G-vectors     FFT dimensions: (  24,  24,  24)

     Estimated max dynamical RAM per process >      20.95 MB

     Estimated total dynamical RAM >      41.91 MB

     Initial potential from superposition of free atoms

     starting charge      10.9999, renormalised to      11.0000
     Starting wfcs are    9 randomized atomic wfcs +    1 random wfcs

     total cpu time spent up to now is       31.1 secs

     Self-consistent Calculation

     iteration #  1     ecut=    40.00 Ry     beta= 0.70
     Davidson diagonalization with overlap
     c_bands:  1 eigenvalues not converged
     ethr =  1.00E-06,  avg # of iterations = 11.8

     total cpu time spent up to now is       35.3 secs

     total energy              =     -66.84545928 Ry
     estimated scf accuracy    <       0.07860056 Ry

     iteration #  2     ecut=    40.00 Ry     beta= 0.70
     Davidson diagonalization with overlap
     ethr =  7.15E-04,  avg # of iterations =  2.0

     total cpu time spent up to now is       37.0 secs

     total energy              =     -66.86885144 Ry
     estimated scf accuracy    <       0.02699693 Ry

     iteration #  3     ecut=    40.00 Ry     beta= 0.70
     Davidson diagonalization with overlap
     ethr =  2.45E-04,  avg # of iterations =  1.7

     total cpu time spent up to now is       38.3 secs

     total energy              =     -66.87400980 Ry
     estimated scf accuracy    <       0.00002908 Ry

     iteration #  4     ecut=    40.00 Ry     beta= 0.70
     Davidson diagonalization with overlap
     ethr =  2.64E-07,  avg # of iterations =  2.2

     total cpu time spent up to now is       40.1 secs

     total energy              =     -66.87402944 Ry
     estimated scf accuracy    <       0.00000352 Ry

     iteration #  5     ecut=    40.00 Ry     beta= 0.70
     Davidson diagonalization with overlap
     ethr =  3.20E-08,  avg # of iterations =  1.0

     total cpu time spent up to now is       41.4 secs

     total energy              =     -66.87402963 Ry
     estimated scf accuracy    <       0.00000010 Ry

     iteration #  6     ecut=    40.00 Ry     beta= 0.70
     Davidson diagonalization with overlap
     ethr =  9.40E-10,  avg # of iterations =  2.0

     total cpu time spent up to now is       43.0 secs

     total energy              =     -66.87402965 Ry
     estimated scf accuracy    <          2.9E-09 Ry

     iteration #  7     ecut=    40.00 Ry     beta= 0.70
     Davidson diagonalization with overlap
     ethr =  2.61E-11,  avg # of iterations =  2.0

     total cpu time spent up to now is       45.1 secs

     End of self-consistent calculation

     Number of k-points >= 100: set verbosity='high' to print the bands.

     the Fermi energy is    16.2251 ev

!    total energy              =     -66.87402965 Ry
     estimated scf accuracy    <          2.8E-10 Ry
     smearing contrib. (-TS)   =       0.00001232 Ry
     internal energy E=F+TS    =     -66.87404198 Ry

     The total energy is F=E-TS. E is the sum of the following terms:
     one-electron contribution =       8.98022741 Ry
     hartree contribution      =       7.13875856 Ry
     xc contribution           =     -10.46246495 Ry
     ewald contribution        =     -72.53056300 Ry

     convergence has been achieved in   7 iterations


     Computing stress (Cartesian axis) and pressure

          total   stress  (Ry/bohr**3)                   (kbar)     P=        0.11
   0.00000075   0.00000000   0.00000000            0.11        0.00        0.00
   0.00000000   0.00000075   0.00000000            0.00        0.11        0.00
   0.00000000   0.00000000   0.00000075            0.00        0.00        0.11

     Message from routine punch:
     Nothing written, as per user request (disk_io='none')

     init_run     :      1.96s CPU      2.15s WALL (       2 calls)
     electrons    :     37.19s CPU     41.23s WALL (       4 calls)
     update_pot   :      0.01s CPU      0.01s WALL (       2 calls)
     stress       :      1.90s CPU      1.94s WALL (       4 calls)

     Called by init_run:
     wfcinit      :      1.05s CPU      1.22s WALL (       2 calls)
     potinit      :      0.19s CPU      0.20s WALL (       2 calls)
     hinit0       :      0.61s CPU      0.63s WALL (       2 calls)

     Called by electrons:
     c_bands      :     31.67s CPU     35.09s WALL (      21 calls)
     sum_band     :      5.23s CPU      5.82s WALL (      21 calls)
     v_of_rho     :      0.04s CPU      0.04s WALL (      22 calls)
     newd         :      0.31s CPU      0.32s WALL (      22 calls)
     mix_rho      :      0.01s CPU      0.01s WALL (      21 calls)

     Called by c_bands:
     init_us_2    :      0.66s CPU      0.72s WALL (    8736 calls)
     cegterg      :     30.59s CPU     33.91s WALL (    3822 calls)

     Called by *egterg:
     cdiaghg      :      2.00s CPU      2.22s WALL (   12414 calls)
     h_psi        :     26.86s CPU     29.82s WALL (   13688 calls)
     s_psi        :      0.20s CPU      0.22s WALL (   13688 calls)
     g_psi        :      0.09s CPU      0.11s WALL (    9502 calls)

     Called by h_psi:
     h_psi:calbec :      0.80s CPU      0.90s WALL (   13688 calls)
     vloc_psi     :     25.60s CPU     28.41s WALL (   13688 calls)
     add_vuspsi   :      0.25s CPU      0.28s WALL (   13688 calls)

     General routines
     calbec       :      1.39s CPU      1.52s WALL (   26974 calls)
     fft          :      0.18s CPU      0.19s WALL (     137 calls)
     ffts         :      0.16s CPU      0.16s WALL (      43 calls)
     fftw         :     26.30s CPU     29.23s WALL (  246054 calls)
     interpolate  :      0.16s CPU      0.16s WALL (      22 calls)

     Parallel routines

     PWSCF        :     41.23s CPU     45.53s WALL


   This run was terminated on:  18: 5:29  21Oct2025            

=------------------------------------------------------------------------------=
   JOB DONE.
=------------------------------------------------------------------------------=
