
     Program PWSCF v.7.4.1 starts on 21Oct2025 at 19:20:28 

     This program is part of the open-source Quantum ESPRESSO suite
     for quantum simulation of materials; please cite
         "P. Giannozzi et al., J. Phys.:Condens. Matter 21 395502 (2009);
         "P. Giannozzi et al., J. Phys.:Condens. Matter 29 465901 (2017);
         "P. Giannozzi et al., J. Chem. Phys. 152 154105 (2020);
          URL http://www.quantum-espresso.org", 
     in publications or presentations arising from this work. More details at
     http://www.quantum-espresso.org/quote

     Parallel version (MPI), running on     2 processors

     MPI processes distributed on     1 nodes
     264 MiB available memory on the printing compute node when the environment starts

     Waiting for input...
     Reading input from standard input
Warning: card &CELL ignored
Warning: card     CELL_DYNAMICS = 'BFGS' ignored
Warning: card / ignored

     Current dimensions of program PWSCF are:
     Max number of different atomic species (ntypx) = 10
     Max number of k-points (npk) =  40000
     Max angular momentum in pseudopotentials (lmaxx) =  4
     file Cu.pz-d-rrkjus.UPF: wavefunction(s)  3D renormalized
     Message from routine setup:
     using ibrav=0 with symmetry is DISCOURAGED, use correct ibrav instead

     R & G space division:  proc/nbgrp/npool/nimage =       2
     Subspace diagonalization in iterative solution of the eigenvalue problem:
     a serial algorithm will be used


     Parallelization info
     --------------------
     sticks:   dense  smooth     PW     G-vecs:    dense   smooth      PW
     Min         348     174     56                 9078     3218     587
     Max         349     175     57                 9081     3221     588
     Sum         697     349    113                18159     6439    1175

     Using Slab Decomposition



     bravais-lattice index     =            0
     lattice parameter (alat)  =       5.2358  a.u.
     unit-cell volume          =     187.8922 (a.u.)^3
     number of atoms/cell      =            2
     number of atomic types    =            2
     number of electrons       =        22.00
     number of Kohn-Sham states=           15
     kinetic-energy cutoff     =      40.0000  Ry
     charge density cutoff     =     320.0000  Ry
     scf convergence threshold =      1.0E-07
     mixing beta               =       0.7000
     number of iterations used =            8  plain     mixing
     Exchange-correlation=  SLA  PZ   NOGX NOGC
                           (   1   1   0   0   0   0   0)

     celldm(1)=   5.235808  celldm(2)=   0.000000  celldm(3)=   0.000000
     celldm(4)=   0.000000  celldm(5)=   0.000000  celldm(6)=   0.000000

     crystal axes: (cart. coord. in units of alat)
               a(1) = (   1.000000   0.000000   0.000000 )  
               a(2) = (   0.000000   1.000000   0.000000 )  
               a(3) = (   0.000000   0.000000   1.309054 )  

     reciprocal axes: (cart. coord. in units 2 pi/alat)
               b(1) = (  1.000000  0.000000  0.000000 )  
               b(2) = (  0.000000  1.000000  0.000000 )  
               b(3) = (  0.000000  0.000000  0.763910 )  


     PseudoPot. # 1 for Au read from file:
     /home/bond/Software/QE/qe-7.4.1/pseudo/Au.pz-d-rrkjus.UPF
     MD5 check sum: 424ffd4ac9c90487cbadcd287136c95b
     Pseudo is Ultrasoft, Zval = 11.0
     Generated by new atomic code, or converted to UPF format
     Using radial grid of 1279 points,  3 beta functions with: 
                l(1) =   2
                l(2) =   2
                l(3) =   1
     Q(r) pseudized with 0 coefficients 


     PseudoPot. # 2 for Cu read from file:
     /home/bond/Software/QE/qe-7.4.1/pseudo/Cu.pz-d-rrkjus.UPF
     MD5 check sum: fd38ae683e239c95a66f426e1f8e5fc7
     Pseudo is Ultrasoft, Zval = 11.0
     Generated by new atomic code, or converted to UPF format
     Using radial grid of  899 points,  3 beta functions with: 
                l(1) =   2
                l(2) =   2
                l(3) =   1
     Q(r) pseudized with 0 coefficients 


     atomic species   valence    mass     pseudopotential
     Au               11.00   196.96657     Au( 1.00)
     Cu               11.00    63.54600     Cu( 1.00)

     16 Sym. Ops., with inversion, found



   Cartesian axes

     site n.     atom                  positions (alat units)
         1        Cu     tau(   1) = (   0.0000000   0.0000000   0.0000000  )
         2        Au     tau(   2) = (   0.5000018   0.5000018   0.6545276  )

     number of k points=   126  Methfessel-Paxton smearing, width (Ry)=  0.0200

     Number of k-points >= 100: set verbosity='high' to print them.

     Dense  grid:    18159 G-vectors     FFT dimensions: (  30,  30,  40)

     Smooth grid:     6439 G-vectors     FFT dimensions: (  24,  24,  27)

     Estimated max dynamical RAM per process >      34.65 MB

     Estimated total dynamical RAM >      69.29 MB

     Initial potential from superposition of free atoms

     starting charge      21.9996, renormalised to      22.0000
     Starting wfcs are   15 randomized atomic wfcs

     total cpu time spent up to now is        1.7 secs

     Self-consistent Calculation

     iteration #  1     ecut=    40.00 Ry     beta= 0.70
     Davidson diagonalization with overlap
     ethr =  1.00E-02,  avg # of iterations =  4.3

     total cpu time spent up to now is        4.2 secs

     total energy              =    -154.62126384 Ry
     estimated scf accuracy    <       0.26428763 Ry

     iteration #  2     ecut=    40.00 Ry     beta= 0.70
     Davidson diagonalization with overlap
     ethr =  1.20E-03,  avg # of iterations =  2.0

     total cpu time spent up to now is        6.4 secs

     total energy              =    -154.69845472 Ry
     estimated scf accuracy    <       0.16370292 Ry

     iteration #  3     ecut=    40.00 Ry     beta= 0.70
     Davidson diagonalization with overlap
     ethr =  7.44E-04,  avg # of iterations =  2.0

     total cpu time spent up to now is        8.4 secs

     total energy              =    -154.72684111 Ry
     estimated scf accuracy    <       0.01469077 Ry

     iteration #  4     ecut=    40.00 Ry     beta= 0.70
     Davidson diagonalization with overlap
     ethr =  6.68E-05,  avg # of iterations =  3.2

     total cpu time spent up to now is       10.3 secs

     total energy              =    -154.73019020 Ry
     estimated scf accuracy    <       0.00115075 Ry

     iteration #  5     ecut=    40.00 Ry     beta= 0.70
     Davidson diagonalization with overlap
     ethr =  5.23E-06,  avg # of iterations =  3.3

     total cpu time spent up to now is       12.6 secs

     total energy              =    -154.73046698 Ry
     estimated scf accuracy    <       0.00009729 Ry

     iteration #  6     ecut=    40.00 Ry     beta= 0.70
     Davidson diagonalization with overlap
     ethr =  4.42E-07,  avg # of iterations =  1.5

     total cpu time spent up to now is       14.5 secs

     End of self-consistent calculation

     Number of k-points >= 100: set verbosity='high' to print the bands.

     the Fermi energy is    15.7728 ev

!    total energy              =    -154.73048408 Ry
     estimated scf accuracy    <       0.00000009 Ry
     smearing contrib. (-TS)   =      -0.00002963 Ry
     internal energy E=F+TS    =    -154.73045445 Ry

     The total energy is F=E-TS. E is the sum of the following terms:
     one-electron contribution =      -4.10638891 Ry
     hartree contribution      =      27.67365886 Ry
     xc contribution           =     -24.55112135 Ry
     ewald contribution        =    -153.74660305 Ry

     convergence has been achieved in   6 iterations


     Computing stress (Cartesian axis) and pressure

          total   stress  (Ry/bohr**3)                   (kbar)     P=        1.91
   0.00000533   0.00000000   0.00000000            0.78        0.00        0.00
   0.00000000   0.00000533   0.00000000            0.00        0.78        0.00
   0.00000000   0.00000000   0.00002830            0.00        0.00        4.16

     Message from routine punch:
     Nothing written, as per user request (disk_io='none')

     init_run     :      1.45s CPU      1.51s WALL (       1 calls)
     electrons    :     11.85s CPU     12.76s WALL (       1 calls)
     stress       :      0.97s CPU      0.97s WALL (       1 calls)

     Called by init_run:
     wfcinit      :      0.73s CPU      0.76s WALL (       1 calls)
     potinit      :      0.18s CPU      0.18s WALL (       1 calls)
     hinit0       :      0.45s CPU      0.45s WALL (       1 calls)

     Called by electrons:
     c_bands      :      9.73s CPU     10.51s WALL (       6 calls)
     sum_band     :      1.87s CPU      1.99s WALL (       6 calls)
     v_of_rho     :      0.01s CPU      0.01s WALL (       7 calls)
     newd         :      0.29s CPU      0.30s WALL (       7 calls)
     mix_rho      :      0.01s CPU      0.01s WALL (       6 calls)

     Called by c_bands:
     init_us_2    :      0.26s CPU      0.28s WALL (    1764 calls)
     cegterg      :      9.28s CPU     10.03s WALL (     756 calls)

     Called by *egterg:
     cdiaghg      :      0.79s CPU      0.85s WALL (    2809 calls)
     h_psi        :      7.97s CPU      8.61s WALL (    2935 calls)
     s_psi        :      0.12s CPU      0.13s WALL (    2935 calls)
     g_psi        :      0.03s CPU      0.04s WALL (    2053 calls)

     Called by h_psi:
     h_psi:calbec :      0.31s CPU      0.33s WALL (    2935 calls)
     vloc_psi     :      7.46s CPU      8.05s WALL (    2935 calls)
     add_vuspsi   :      0.15s CPU      0.16s WALL (    2935 calls)

     General routines
     calbec       :      0.56s CPU      0.59s WALL (    5329 calls)
     fft          :      0.17s CPU      0.18s WALL (      42 calls)
     ffts         :      0.13s CPU      0.13s WALL (      13 calls)
     fftw         :      7.72s CPU      8.32s WALL (   69798 calls)
     interpolate  :      0.13s CPU      0.13s WALL (       7 calls)

     Parallel routines

     PWSCF        :     14.44s CPU     15.43s WALL


   This run was terminated on:  19:20:44  21Oct2025            

=------------------------------------------------------------------------------=
   JOB DONE.
=------------------------------------------------------------------------------=
