
     Program PWSCF v.7.4.1 starts on 20Oct2025 at 23:19: 0 

     This program is part of the open-source Quantum ESPRESSO suite
     for quantum simulation of materials; please cite
         "P. Giannozzi et al., J. Phys.:Condens. Matter 21 395502 (2009);
         "P. Giannozzi et al., J. Phys.:Condens. Matter 29 465901 (2017);
         "P. Giannozzi et al., J. Chem. Phys. 152 154105 (2020);
          URL http://www.quantum-espresso.org", 
     in publications or presentations arising from this work. More details at
     http://www.quantum-espresso.org/quote

     Parallel version (MPI), running on     2 processors

     MPI processes distributed on     1 nodes
     329 MiB available memory on the printing compute node when the environment starts

     Waiting for input...
     Reading input from standard input
Warning: card &CELL ignored
Warning: card / ignored

     Current dimensions of program PWSCF are:
     Max number of different atomic species (ntypx) = 10
     Max number of k-points (npk) =  40000
     Max angular momentum in pseudopotentials (lmaxx) =  4
     file Fe.pbe-nd-rrkjus.UPF: wavefunction(s)  4S renormalized
     Message from routine setup:
     using ibrav=0 with symmetry is DISCOURAGED, use correct ibrav instead

     R & G space division:  proc/nbgrp/npool/nimage =       2
     Subspace diagonalization in iterative solution of the eigenvalue problem:
     a serial algorithm will be used


     Parallelization info
     --------------------
     sticks:   dense  smooth     PW     G-vecs:    dense   smooth      PW
     Min         336     131     42                12039     3065     564
     Max         337     134     43                12040     3066     571
     Sum         673     265     85                24079     6131    1135

     Using Slab Decomposition



     bravais-lattice index     =            0
     lattice parameter (alat)  =       5.6692  a.u.
     unit-cell volume          =     274.0885 (a.u.)^3
     number of atoms/cell      =            2
     number of atomic types    =            1
     number of electrons       =        16.00
     number of Kohn-Sham states=           12
     kinetic-energy cutoff     =      30.0000  Ry
     charge density cutoff     =     300.0000  Ry
     scf convergence threshold =      1.0E-07
     mixing beta               =       0.5000
     number of iterations used =            8  plain     mixing
     Exchange-correlation=  SLA  PW   PBE  PBE
                           (   1   4   3   4   0   0   0)

     celldm(1)=   5.669178  celldm(2)=   0.000000  celldm(3)=   0.000000
     celldm(4)=   0.000000  celldm(5)=   0.000000  celldm(6)=   0.000000

     crystal axes: (cart. coord. in units of alat)
               a(1) = (   1.000000   0.000000   0.000000 )  
               a(2) = (  -0.500000   0.866025   0.000000 )  
               a(3) = (   0.000000   0.000000   1.737000 )  

     reciprocal axes: (cart. coord. in units 2 pi/alat)
               b(1) = (  1.000000  0.577350 -0.000000 )  
               b(2) = (  0.000000  1.154701  0.000000 )  
               b(3) = (  0.000000 -0.000000  0.575705 )  


     PseudoPot. # 1 for Fe read from file:
     /home/bond/Software/QE/qe-7.4.1/pseudo/Fe.pbe-nd-rrkjus.UPF
     MD5 check sum: 398036227a04b607635f6f5e8dfd8242
     Pseudo is Ultrasoft + core correction, Zval =  8.0
     Generated by new atomic code, or converted to UPF format
     Using radial grid of  957 points,  6 beta functions with: 
                l(1) =   0
                l(2) =   0
                l(3) =   1
                l(4) =   1
                l(5) =   2
                l(6) =   2
     Q(r) pseudized with 0 coefficients 


     atomic species   valence    mass     pseudopotential
     Fe                8.00    55.84500     Fe( 1.00)

     Starting magnetic structure 
     atomic species   magnetization
     Fe              0.700

     24 Sym. Ops., with inversion, found (12 have fractional translation)



   Cartesian axes

     site n.     atom                  positions (alat units)
         1        Fe     tau(   1) = (   0.0000000   0.0000000   0.0000000  )
         2        Fe     tau(   2) = (   0.0000000   0.5773500   0.8685000  )

     number of k points=    96  Methfessel-Paxton smearing, width (Ry)=  0.0200
                       cart. coord. in units 2pi/alat
        k(    1) = (   0.0000000   0.0000000   0.0000000), wk =   0.0007289
        k(    2) = (   0.0000000   0.0000000   0.0822436), wk =   0.0014577
        k(    3) = (   0.0000000   0.0000000   0.1644872), wk =   0.0014577
        k(    4) = (   0.0000000   0.0000000   0.2467308), wk =   0.0014577
        k(    5) = (   0.0000000   0.0824786   0.0000000), wk =   0.0043732
        k(    6) = (   0.0000000   0.0824786   0.0822436), wk =   0.0087464
        k(    7) = (   0.0000000   0.0824786   0.1644872), wk =   0.0087464
        k(    8) = (   0.0000000   0.0824786   0.2467308), wk =   0.0087464
        k(    9) = (   0.0000000   0.1649572   0.0000000), wk =   0.0043732
        k(   10) = (   0.0000000   0.1649572   0.0822436), wk =   0.0087464
        k(   11) = (   0.0000000   0.1649572   0.1644872), wk =   0.0087464
        k(   12) = (   0.0000000   0.1649572   0.2467308), wk =   0.0087464
        k(   13) = (   0.0000000   0.2474358   0.0000000), wk =   0.0043732
        k(   14) = (   0.0000000   0.2474358   0.0822436), wk =   0.0087464
        k(   15) = (   0.0000000   0.2474358   0.1644872), wk =   0.0087464
        k(   16) = (   0.0000000   0.2474358   0.2467308), wk =   0.0087464
        k(   17) = (   0.0000000   0.3299144   0.0000000), wk =   0.0043732
        k(   18) = (   0.0000000   0.3299144   0.0822436), wk =   0.0087464
        k(   19) = (   0.0000000   0.3299144   0.1644872), wk =   0.0087464
        k(   20) = (   0.0000000   0.3299144   0.2467308), wk =   0.0087464
        k(   21) = (   0.0000000   0.4123930   0.0000000), wk =   0.0043732
        k(   22) = (   0.0000000   0.4123930   0.0822436), wk =   0.0087464
        k(   23) = (   0.0000000   0.4123930   0.1644872), wk =   0.0087464
        k(   24) = (   0.0000000   0.4123930   0.2467308), wk =   0.0087464
        k(   25) = (   0.0000000   0.4948717   0.0000000), wk =   0.0043732
        k(   26) = (   0.0000000   0.4948717   0.0822436), wk =   0.0087464
        k(   27) = (   0.0000000   0.4948717   0.1644872), wk =   0.0087464
        k(   28) = (   0.0000000   0.4948717   0.2467308), wk =   0.0087464
        k(   29) = (   0.0000000  -0.5773503   0.0000000), wk =   0.0021866
        k(   30) = (   0.0000000  -0.5773503   0.0822436), wk =   0.0043732
        k(   31) = (   0.0000000  -0.5773503   0.1644872), wk =   0.0043732
        k(   32) = (   0.0000000  -0.5773503   0.2467308), wk =   0.0043732
        k(   33) = (   0.0714286   0.1237179   0.0000000), wk =   0.0043732
        k(   34) = (   0.0714286   0.1237179   0.0822436), wk =   0.0087464
        k(   35) = (   0.0714286   0.1237179   0.1644872), wk =   0.0087464
        k(   36) = (   0.0714286   0.1237179   0.2467308), wk =   0.0087464
        k(   37) = (   0.0714286   0.2061965   0.0000000), wk =   0.0087464
        k(   38) = (   0.0714286   0.2061965   0.0822436), wk =   0.0174927
        k(   39) = (   0.0714286   0.2061965   0.1644872), wk =   0.0174927
        k(   40) = (   0.0714286   0.2061965   0.2467308), wk =   0.0174927
        k(   41) = (   0.0714286   0.2886751   0.0000000), wk =   0.0087464
        k(   42) = (   0.0714286   0.2886751   0.0822436), wk =   0.0174927
        k(   43) = (   0.0714286   0.2886751   0.1644872), wk =   0.0174927
        k(   44) = (   0.0714286   0.2886751   0.2467308), wk =   0.0174927
        k(   45) = (   0.0714286   0.3711537   0.0000000), wk =   0.0087464
        k(   46) = (   0.0714286   0.3711537   0.0822436), wk =   0.0174927
        k(   47) = (   0.0714286   0.3711537   0.1644872), wk =   0.0174927
        k(   48) = (   0.0714286   0.3711537   0.2467308), wk =   0.0174927
        k(   49) = (   0.0714286   0.4536324   0.0000000), wk =   0.0087464
        k(   50) = (   0.0714286   0.4536324   0.0822436), wk =   0.0174927
        k(   51) = (   0.0714286   0.4536324   0.1644872), wk =   0.0174927
        k(   52) = (   0.0714286   0.4536324   0.2467308), wk =   0.0174927
        k(   53) = (   0.0714286   0.5361110   0.0000000), wk =   0.0087464
        k(   54) = (   0.0714286   0.5361110   0.0822436), wk =   0.0174927
        k(   55) = (   0.0714286   0.5361110   0.1644872), wk =   0.0174927
        k(   56) = (   0.0714286   0.5361110   0.2467308), wk =   0.0174927
        k(   57) = (   0.1428571   0.2474358   0.0000000), wk =   0.0043732
        k(   58) = (   0.1428571   0.2474358   0.0822436), wk =   0.0087464
        k(   59) = (   0.1428571   0.2474358   0.1644872), wk =   0.0087464
        k(   60) = (   0.1428571   0.2474358   0.2467308), wk =   0.0087464
        k(   61) = (   0.1428571   0.3299144   0.0000000), wk =   0.0087464
        k(   62) = (   0.1428571   0.3299144   0.0822436), wk =   0.0174927
        k(   63) = (   0.1428571   0.3299144   0.1644872), wk =   0.0174927
        k(   64) = (   0.1428571   0.3299144   0.2467308), wk =   0.0174927
        k(   65) = (   0.1428571   0.4123930   0.0000000), wk =   0.0087464
        k(   66) = (   0.1428571   0.4123930   0.0822436), wk =   0.0174927
        k(   67) = (   0.1428571   0.4123930   0.1644872), wk =   0.0174927
        k(   68) = (   0.1428571   0.4123930   0.2467308), wk =   0.0174927
        k(   69) = (   0.1428571   0.4948717   0.0000000), wk =   0.0087464
        k(   70) = (   0.1428571   0.4948717   0.0822436), wk =   0.0174927
        k(   71) = (   0.1428571   0.4948717   0.1644872), wk =   0.0174927
        k(   72) = (   0.1428571   0.4948717   0.2467308), wk =   0.0174927
        k(   73) = (   0.1428571   0.5773503   0.0000000), wk =   0.0043732
        k(   74) = (   0.1428571   0.5773503   0.0822436), wk =   0.0087464
        k(   75) = (   0.1428571   0.5773503   0.1644872), wk =   0.0087464
        k(   76) = (   0.1428571   0.5773503   0.2467308), wk =   0.0087464
        k(   77) = (   0.2142857   0.3711537   0.0000000), wk =   0.0043732
        k(   78) = (   0.2142857   0.3711537   0.0822436), wk =   0.0087464
        k(   79) = (   0.2142857   0.3711537   0.1644872), wk =   0.0087464
        k(   80) = (   0.2142857   0.3711537   0.2467308), wk =   0.0087464
        k(   81) = (   0.2142857   0.4536324   0.0000000), wk =   0.0087464
        k(   82) = (   0.2142857   0.4536324   0.0822436), wk =   0.0174927
        k(   83) = (   0.2142857   0.4536324   0.1644872), wk =   0.0174927
        k(   84) = (   0.2142857   0.4536324   0.2467308), wk =   0.0174927
        k(   85) = (   0.2142857   0.5361110   0.0000000), wk =   0.0087464
        k(   86) = (   0.2142857   0.5361110   0.0822436), wk =   0.0174927
        k(   87) = (   0.2142857   0.5361110   0.1644872), wk =   0.0174927
        k(   88) = (   0.2142857   0.5361110   0.2467308), wk =   0.0174927
        k(   89) = (   0.2857143   0.4948717   0.0000000), wk =   0.0043732
        k(   90) = (   0.2857143   0.4948717   0.0822436), wk =   0.0087464
        k(   91) = (   0.2857143   0.4948717   0.1644872), wk =   0.0087464
        k(   92) = (   0.2857143   0.4948717   0.2467308), wk =   0.0087464
        k(   93) = (   0.2857143   0.5773503   0.0000000), wk =   0.0043732
        k(   94) = (   0.2857143   0.5773503   0.0822436), wk =   0.0087464
        k(   95) = (   0.2857143   0.5773503   0.1644872), wk =   0.0087464
        k(   96) = (   0.2857143   0.5773503   0.2467308), wk =   0.0087464

     Dense  grid:    24079 G-vectors     FFT dimensions: (  36,  36,  60)

     Smooth grid:     6131 G-vectors     FFT dimensions: (  24,  24,  36)

     Estimated max dynamical RAM per process >      65.00 MB

     Estimated total dynamical RAM >     129.99 MB

     Check: negative core charge=   -0.000023
     Generating pointlists ...
     new r_m :   0.4125 (alat units)  2.3385 (a.u.) for type    1

     Initial potential from superposition of free atoms

     starting charge      15.9987, renormalised to      16.0000
     Starting wfcs are   12 randomized atomic wfcs

     total cpu time spent up to now is        2.2 secs

     Self-consistent Calculation

     iteration #  1     ecut=    30.00 Ry     beta= 0.50
     Davidson diagonalization with overlap
     ethr =  1.00E-02,  avg # of iterations =  3.6

     total cpu time spent up to now is        5.9 secs

     total energy              =    -111.13447291 Ry
     estimated scf accuracy    <       0.68157653 Ry

     total magnetization       =     7.74 Bohr mag/cell
     absolute magnetization    =     7.74 Bohr mag/cell

     iteration #  2     ecut=    30.00 Ry     beta= 0.50
     Davidson diagonalization with overlap
     ethr =  4.26E-03,  avg # of iterations =  2.7

     total cpu time spent up to now is        9.4 secs

     total energy              =    -111.36852742 Ry
     estimated scf accuracy    <       0.24728775 Ry

     total magnetization       =     6.35 Bohr mag/cell
     absolute magnetization    =     6.37 Bohr mag/cell

     iteration #  3     ecut=    30.00 Ry     beta= 0.50
     Davidson diagonalization with overlap
     ethr =  1.55E-03,  avg # of iterations =  1.7

     total cpu time spent up to now is       12.2 secs

     total energy              =    -111.42282222 Ry
     estimated scf accuracy    <       0.01164317 Ry

     total magnetization       =     6.62 Bohr mag/cell
     absolute magnetization    =     6.70 Bohr mag/cell

     iteration #  4     ecut=    30.00 Ry     beta= 0.50
     Davidson diagonalization with overlap
     ethr =  7.28E-05,  avg # of iterations =  4.0

     total cpu time spent up to now is       16.4 secs

     total energy              =    -111.43108004 Ry
     estimated scf accuracy    <       0.00767267 Ry

     total magnetization       =     6.40 Bohr mag/cell
     absolute magnetization    =     6.70 Bohr mag/cell

     iteration #  5     ecut=    30.00 Ry     beta= 0.50
     Davidson diagonalization with overlap
     ethr =  4.80E-05,  avg # of iterations =  3.1

     total cpu time spent up to now is       20.1 secs

     total energy              =    -111.43516492 Ry
     estimated scf accuracy    <       0.00505886 Ry

     total magnetization       =     6.17 Bohr mag/cell
     absolute magnetization    =     6.59 Bohr mag/cell

     iteration #  6     ecut=    30.00 Ry     beta= 0.50
     Davidson diagonalization with overlap
     ethr =  3.16E-05,  avg # of iterations =  1.1

     total cpu time spent up to now is       22.8 secs

     total energy              =    -111.43508196 Ry
     estimated scf accuracy    <       0.00117624 Ry

     total magnetization       =     6.21 Bohr mag/cell
     absolute magnetization    =     6.63 Bohr mag/cell

     iteration #  7     ecut=    30.00 Ry     beta= 0.50
     Davidson diagonalization with overlap
     ethr =  7.35E-06,  avg # of iterations =  2.5

     total cpu time spent up to now is       25.9 secs

     total energy              =    -111.43543440 Ry
     estimated scf accuracy    <       0.00001116 Ry

     total magnetization       =     6.24 Bohr mag/cell
     absolute magnetization    =     6.68 Bohr mag/cell

     iteration #  8     ecut=    30.00 Ry     beta= 0.50
     Davidson diagonalization with overlap
     ethr =  6.98E-08,  avg # of iterations =  6.7

     total cpu time spent up to now is       32.1 secs

     total energy              =    -111.43547700 Ry
     estimated scf accuracy    <       0.00002461 Ry

     total magnetization       =     6.24 Bohr mag/cell
     absolute magnetization    =     6.68 Bohr mag/cell

     iteration #  9     ecut=    30.00 Ry     beta= 0.50
     Davidson diagonalization with overlap
     ethr =  6.98E-08,  avg # of iterations =  1.0

     total cpu time spent up to now is       34.7 secs

     total energy              =    -111.43547229 Ry
     estimated scf accuracy    <       0.00001967 Ry

     total magnetization       =     6.24 Bohr mag/cell
     absolute magnetization    =     6.68 Bohr mag/cell

     iteration # 10     ecut=    30.00 Ry     beta= 0.50
     Davidson diagonalization with overlap
     ethr =  6.98E-08,  avg # of iterations =  2.3

     total cpu time spent up to now is       37.8 secs

     total energy              =    -111.43547564 Ry
     estimated scf accuracy    <       0.00000063 Ry

     total magnetization       =     6.24 Bohr mag/cell
     absolute magnetization    =     6.68 Bohr mag/cell

     iteration # 11     ecut=    30.00 Ry     beta= 0.50
     Davidson diagonalization with overlap
     ethr =  3.92E-09,  avg # of iterations =  6.3

     total cpu time spent up to now is       43.6 secs

     total energy              =    -111.43547763 Ry
     estimated scf accuracy    <       0.00000319 Ry

     total magnetization       =     6.24 Bohr mag/cell
     absolute magnetization    =     6.68 Bohr mag/cell

     iteration # 12     ecut=    30.00 Ry     beta= 0.50
     Davidson diagonalization with overlap
     ethr =  3.92E-09,  avg # of iterations =  1.1

     total cpu time spent up to now is       46.3 secs

     total energy              =    -111.43547645 Ry
     estimated scf accuracy    <       0.00000253 Ry

     total magnetization       =     6.24 Bohr mag/cell
     absolute magnetization    =     6.68 Bohr mag/cell

     iteration # 13     ecut=    30.00 Ry     beta= 0.50
     Davidson diagonalization with overlap
     ethr =  3.92E-09,  avg # of iterations =  3.9

     total cpu time spent up to now is       50.5 secs

     total energy              =    -111.43547711 Ry
     estimated scf accuracy    <       0.00000017 Ry

     total magnetization       =     6.24 Bohr mag/cell
     absolute magnetization    =     6.68 Bohr mag/cell

     iteration # 14     ecut=    30.00 Ry     beta= 0.50
     Davidson diagonalization with overlap
     ethr =  1.03E-09,  avg # of iterations =  3.5

     Magnetic moment per site  (integrated on atomic sphere of radius R)
     atom   1 (R=0.413)  charge=  6.8490  magn=  3.2223
     atom   2 (R=0.413)  charge=  6.8490  magn=  3.2223

     total cpu time spent up to now is       54.1 secs

     End of self-consistent calculation

     Number of k-points >= 100: set verbosity='high' to print the bands.

     the Fermi energy is     6.5580 ev

!    total energy              =    -111.43547714 Ry
     estimated scf accuracy    <       0.00000009 Ry
     smearing contrib. (-TS)   =      -0.00105357 Ry
     internal energy E=F+TS    =    -111.43442357 Ry

     The total energy is F=E-TS. E is the sum of the following terms:
     one-electron contribution =      -6.90688189 Ry
     hartree contribution      =      19.70302093 Ry
     xc contribution           =     -52.56541740 Ry
     ewald contribution        =     -71.66514521 Ry

     total magnetization       =     6.24 Bohr mag/cell
     absolute magnetization    =     6.68 Bohr mag/cell

     convergence has been achieved in  14 iterations

     Forces acting on atoms (cartesian axes, Ry/au):

     atom    1 type  1   force =     0.00000000    0.00000000    0.00000000
     atom    2 type  1   force =     0.00000000   -0.00000000    0.00000000

     Total force =     0.000000     Total SCF correction =     0.000000


     Computing stress (Cartesian axis) and pressure

          total   stress  (Ry/bohr**3)                   (kbar)     P=     -249.27
  -0.00173620  -0.00000000   0.00000000         -255.40       -0.00        0.00
  -0.00000000  -0.00173620   0.00000000           -0.00     -255.40        0.00
   0.00000000   0.00000000  -0.00161118            0.00        0.00     -237.01

     Message from routine punch:
     Nothing written, as per user request (disk_io='none')

     init_run     :      1.91s CPU      2.03s WALL (       1 calls)
     electrons    :     48.68s CPU     51.88s WALL (       1 calls)
     forces       :      0.27s CPU      0.27s WALL (       1 calls)
     stress       :      1.23s CPU      1.24s WALL (       1 calls)

     Called by init_run:
     wfcinit      :      1.09s CPU      1.17s WALL (       1 calls)
     potinit      :      0.27s CPU      0.29s WALL (       1 calls)
     hinit0       :      0.41s CPU      0.42s WALL (       1 calls)

     Called by electrons:
     c_bands      :     40.42s CPU     43.15s WALL (      14 calls)
     sum_band     :      6.72s CPU      7.17s WALL (      14 calls)
     v_of_rho     :      0.82s CPU      0.84s WALL (      15 calls)
     newd         :      0.76s CPU      0.77s WALL (      15 calls)
     mix_rho      :      0.05s CPU      0.05s WALL (      14 calls)

     Called by c_bands:
     init_us_2    :      0.87s CPU      0.93s WALL (    5952 calls)
     cegterg      :     38.13s CPU     40.72s WALL (    2688 calls)

     Called by *egterg:
     cdiaghg      :      2.29s CPU      2.44s WALL (   11038 calls)
     h_psi        :     33.11s CPU     35.38s WALL (   11230 calls)
     s_psi        :      0.49s CPU      0.53s WALL (   11230 calls)
     g_psi        :      0.12s CPU      0.13s WALL (    8350 calls)

     Called by h_psi:
     h_psi:calbec :      1.30s CPU      1.39s WALL (   11230 calls)
     vloc_psi     :     30.99s CPU     33.12s WALL (   11230 calls)
     add_vuspsi   :      0.59s CPU      0.64s WALL (   11230 calls)

     General routines
     calbec       :      1.89s CPU      2.01s WALL (   17182 calls)
     fft          :      0.52s CPU      0.53s WALL (     413 calls)
     ffts         :      0.19s CPU      0.19s WALL (      58 calls)
     fftw         :     29.69s CPU     31.80s WALL (  219618 calls)
     interpolate  :      0.21s CPU      0.21s WALL (      30 calls)

     Parallel routines

     PWSCF        :     52.26s CPU     55.60s WALL


   This run was terminated on:  23:19:55  20Oct2025            

=------------------------------------------------------------------------------=
   JOB DONE.
=------------------------------------------------------------------------------=
