LAMMPS (22 Jul 2025 - Update 1)
Reading data file ...
  orthogonal box = (0 0 0) to (8.7451919 8.7451919 16.183785)
  1 by 1 by 1 MPI processor grid
  reading atoms ...
  36 atoms
  read_data CPU = 0.001 seconds
WARNING: No fixes with time integration, atoms won't move
For more information see https://docs.lammps.org/err0028 (../verlet.cpp:60)
Generated 0 of 0 mixed pair_coeff terms from geometric mixing rule
Neighbor list info ...
  update: every = 1 steps, delay = 0 steps, check = yes
  max neighbors/atom: 2000, page size: 100000
  master list distance cutoff = 6.5
  ghost atom cutoff = 6.5
  binsize = 3.25, bins = 3 3 5
  1 neighbor lists, perpetual/occasional/extra = 1 0 0
  (1) pair lj/cut, perpetual
      attributes: half, newton on
      pair build: half/bin/atomonly/newton
      stencil: half/bin/3d
      bin: standard
Setting up Verlet run ...
  Unit style    : metal
  Current step  : 0
  Time step     : 0.001
Per MPI rank memory allocation (min/avg/max) = 3.053 | 3.053 | 3.053 Mbytes
   Step         PotEng           Lx             Ly             Lz           Press           Pxx            Pyy            Pzz      
         0  -79.038136      8.7451919      8.7451919      16.183785      0.54633655    -3134.7261     -3134.7261      6271.0911    
Loop time of 2.31e-06 on 1 procs for 0 steps with 36 atoms

389.6% CPU use with 1 MPI tasks x no OpenMP threads

MPI task timing breakdown:
Section |  min time  |  avg time  |  max time  |%varavg| %total
---------------------------------------------------------------
Pair    | 0          | 0          | 0          |   0.0 |  0.00
Neigh   | 0          | 0          | 0          |   0.0 |  0.00
Comm    | 0          | 0          | 0          |   0.0 |  0.00
Output  | 0          | 0          | 0          |   0.0 |  0.00
Modify  | 0          | 0          | 0          |   0.0 |  0.00
Other   |            | 2.31e-06   |            |       |100.00

Nlocal:             36 ave          36 max          36 min
Histogram: 1 0 0 0 0 0 0 0 0 0
Nghost:            190 ave         190 max         190 min
Histogram: 1 0 0 0 0 0 0 0 0 0
Neighs:            702 ave         702 max         702 min
Histogram: 1 0 0 0 0 0 0 0 0 0

Total # of neighbors = 702
Ave neighs/atom = 19.5
Neighbor list builds = 0
Dangerous builds = 0
Generated 0 of 0 mixed pair_coeff terms from geometric mixing rule
Setting up cg style minimization ...
  Unit style    : metal
  Current step  : 0
WARNING: Energy due to 3 extra global DOFs will be included in minimizer energies
 (../min.cpp:222)
Per MPI rank memory allocation (min/avg/max) = 4.178 | 4.178 | 4.178 Mbytes
   Step         PotEng           Lx             Ly             Lz           Press           Pxx            Pyy            Pzz      
         0  -79.038136      8.7451919      8.7451919      16.183785      0.54633655    -3134.7261     -3134.7261      6271.0911    
        15  -79.082175      8.7052666      8.7052666      16.183785      4.2713205      2.3718459      2.3718459      8.0702696    
Loop time of 0.000521816 on 1 procs for 15 steps with 36 atoms

100.0% CPU use with 1 MPI tasks x no OpenMP threads

Minimization stats:
  Stopping criterion = energy tolerance
  Energy initial, next-to-last, final = 
     -79.0381359895919  -79.0821746408283  -79.0821746433192
  Force two-norm initial, final = 3.5131541 0.0026506769
  Force max component initial, final = 2.4216313 0.0018239277
  Final line search alpha, max atom move = 1 0.0018239277
  Iterations, force evaluations = 15 27

MPI task timing breakdown:
Section |  min time  |  avg time  |  max time  |%varavg| %total
---------------------------------------------------------------
Pair    | 0.00028846 | 0.00028846 | 0.00028846 |   0.0 | 55.28
Neigh   | 0          | 0          | 0          |   0.0 |  0.00
Comm    | 2.8723e-05 | 2.8723e-05 | 2.8723e-05 |   0.0 |  5.50
Output  | 0          | 0          | 0          |   0.0 |  0.00
Modify  | 0          | 0          | 0          |   0.0 |  0.00
Other   |            | 0.0002046  |            |       | 39.22

Nlocal:             36 ave          36 max          36 min
Histogram: 1 0 0 0 0 0 0 0 0 0
Nghost:            190 ave         190 max         190 min
Histogram: 1 0 0 0 0 0 0 0 0 0
Neighs:            702 ave         702 max         702 min
Histogram: 1 0 0 0 0 0 0 0 0 0

Total # of neighbors = 702
Ave neighs/atom = 19.5
Neighbor list builds = 0
Dangerous builds = 0
Total energy (eV) = -79.0821746433192
Number of atoms = 36
Lattice constant (Angstoms) = 8.7052665709663
Total wall time: 0:00:00
