
     Program PWSCF v.7.4.1 starts on  7Oct2025 at 23:57:37 

     This program is part of the open-source Quantum ESPRESSO suite
     for quantum simulation of materials; please cite
         "P. Giannozzi et al., J. Phys.:Condens. Matter 21 395502 (2009);
         "P. Giannozzi et al., J. Phys.:Condens. Matter 29 465901 (2017);
         "P. Giannozzi et al., J. Chem. Phys. 152 154105 (2020);
          URL http://www.quantum-espresso.org", 
     in publications or presentations arising from this work. More details at
     http://www.quantum-espresso.org/quote

     Parallel version (MPI), running on     1 processors

     MPI processes distributed on     1 nodes
     200 MiB available memory on the printing compute node when the environment starts

     Waiting for input...
     Reading input from standard input
Warning: card &CELL ignored
Warning: card / ignored

     Current dimensions of program PWSCF are:
     Max number of different atomic species (ntypx) = 10
     Max number of k-points (npk) =  40000
     Max angular momentum in pseudopotentials (lmaxx) =  4
     Message from routine setup:
     using ibrav=0 with symmetry is DISCOURAGED, use correct ibrav instead

     Subspace diagonalization in iterative solution of the eigenvalue problem:
     a serial algorithm will be used


     G-vector sticks info
     --------------------
     sticks:   dense  smooth     PW     G-vecs:    dense   smooth      PW
     Sum         793     793    241                14553    14553    2421

     Using Slab Decomposition



     bravais-lattice index     =            0
     lattice parameter (alat)  =       7.5604  a.u.
     unit-cell volume          =     305.5804 (a.u.)^3
     number of atoms/cell      =            2
     number of atomic types    =            1
     number of electrons       =        28.00
     number of Kohn-Sham states=           14
     kinetic-energy cutoff     =      50.0000  Ry
     charge density cutoff     =     200.0000  Ry
     scf convergence threshold =      1.0E-07
     mixing beta               =       0.5000
     number of iterations used =            8  plain     mixing
     Exchange-correlation=  SLA  PZ   NOGX NOGC
                           (   1   1   0   0   0   0   0)

     celldm(1)=   7.560435  celldm(2)=   0.000000  celldm(3)=   0.000000
     celldm(4)=   0.000000  celldm(5)=   0.000000  celldm(6)=   0.000000

     crystal axes: (cart. coord. in units of alat)
               a(1) = (   0.000000   0.707107   0.707107 )  
               a(2) = (   0.707107   0.000000   0.707107 )  
               a(3) = (   0.707107   0.707107   0.000000 )  

     reciprocal axes: (cart. coord. in units 2 pi/alat)
               b(1) = ( -0.707107  0.707107  0.707107 )  
               b(2) = (  0.707107 -0.707107  0.707107 )  
               b(3) = (  0.707107  0.707107 -0.707107 )  


     PseudoPot. # 1 for Ge read from file:
     /home/bond/Software/QE/qe-7.4.1/pseudo/ge_lda_v1.4.uspp.F.UPF
     MD5 check sum: bf9d52b59cc8a669818bb2b52e0c2ba0
     Pseudo is Ultrasoft + core correction, Zval = 14.0
     Generated by new atomic code, or converted to UPF format
     Using radial grid of  873 points,  6 beta functions with: 
                l(1) =   0
                l(2) =   0
                l(3) =   1
                l(4) =   1
                l(5) =   2
                l(6) =   2
     Q(r) pseudized with  8 coefficients,  rinner =    1.400   1.400   1.400
                                                       1.400   1.400

     atomic species   valence    mass     pseudopotential
     Ge               14.00    72.63000     Ge( 1.00)

     48 Sym. Ops., with inversion, found (24 have fractional translation)



   Cartesian axes

     site n.     atom                  positions (alat units)
         1        Ge     tau(   1) = (   0.0000000   0.0000000   0.0000000  )
         2        Ge     tau(   2) = (   0.3535534   0.3535534   0.3535534  )

     number of k points=     8
                       cart. coord. in units 2pi/alat
        k(    1) = (   0.0000000   0.0000000   0.0000000), wk =   0.0312500
        k(    2) = (   0.1767767   0.1767767  -0.1767767), wk =   0.2500000
        k(    3) = (  -0.3535534  -0.3535534   0.3535534), wk =   0.1250000
        k(    4) = (   0.3535534   0.0000000   0.0000000), wk =   0.1875000
        k(    5) = (  -0.1767767  -0.5303301   0.5303301), wk =   0.7500000
        k(    6) = (   0.0000000  -0.3535534   0.3535534), wk =   0.3750000
        k(    7) = (  -0.7071068   0.0000000   0.0000000), wk =   0.0937500
        k(    8) = (  -0.7071068   0.3535534   0.0000000), wk =   0.1875000

     Dense  grid:    14553 G-vectors     FFT dimensions: (  36,  36,  36)

     Estimated max dynamical RAM per process >      59.53 MB

     Check: negative core charge=   -0.000002

     Initial potential from superposition of free atoms

     starting charge      27.9986, renormalised to      28.0000
     Starting wfcs are   18 randomized atomic wfcs

     total cpu time spent up to now is        1.0 secs

     Self-consistent Calculation

     iteration #  1     ecut=    50.00 Ry     beta= 0.50
     Davidson diagonalization with overlap
     ethr =  1.00E-02,  avg # of iterations =  1.8

     Threshold (ethr) on eigenvalues was too large:
     Diagonalizing with lowered threshold

     Davidson diagonalization with overlap
     ethr =  1.31E-04,  avg # of iterations =  1.9

     total cpu time spent up to now is        1.9 secs

     total energy              =    -426.15252023 Ry
     estimated scf accuracy    <       0.03931896 Ry

     iteration #  2     ecut=    50.00 Ry     beta= 0.50
     Davidson diagonalization with overlap
     ethr =  1.40E-04,  avg # of iterations =  1.1

     total cpu time spent up to now is        2.3 secs

     total energy              =    -426.15098360 Ry
     estimated scf accuracy    <       0.00696456 Ry

     iteration #  3     ecut=    50.00 Ry     beta= 0.50
     Davidson diagonalization with overlap
     ethr =  2.49E-05,  avg # of iterations =  2.0

     total cpu time spent up to now is        2.8 secs

     total energy              =    -426.15148105 Ry
     estimated scf accuracy    <       0.00007466 Ry

     iteration #  4     ecut=    50.00 Ry     beta= 0.50
     Davidson diagonalization with overlap
     ethr =  2.67E-07,  avg # of iterations =  3.5

     total cpu time spent up to now is        3.4 secs

     total energy              =    -426.15149980 Ry
     estimated scf accuracy    <       0.00000316 Ry

     iteration #  5     ecut=    50.00 Ry     beta= 0.50
     Davidson diagonalization with overlap
     ethr =  1.13E-08,  avg # of iterations =  3.9

     total cpu time spent up to now is        4.0 secs

     total energy              =    -426.15150071 Ry
     estimated scf accuracy    <       0.00000016 Ry

     iteration #  6     ecut=    50.00 Ry     beta= 0.50
     Davidson diagonalization with overlap
     ethr =  5.59E-10,  avg # of iterations =  3.4

     total cpu time spent up to now is        4.8 secs

     End of self-consistent calculation

          k = 0.0000 0.0000 0.0000 (  1837 PWs)   bands (ev):

   -16.6788 -16.6788 -16.6788 -16.6427 -16.6427 -16.4316 -16.4316 -16.4316
   -16.4182 -16.4182  -4.6287   8.0075   8.1965   8.1965

          k = 0.1768 0.1768-0.1768 (  1847 PWs)   bands (ev):

   -16.6970 -16.6970 -16.6702 -16.6142 -16.6142 -16.4574 -16.4574 -16.4417
   -16.3978 -16.3978  -3.8866   3.4148   7.3104   7.3104

          k =-0.3536-0.3536 0.3536 (  1850 PWs)   bands (ev):

   -16.7034 -16.7034 -16.6613 -16.6008 -16.6008 -16.4662 -16.4662 -16.4523
   -16.3909 -16.3909  -2.5398   0.5410   6.7883   6.7883

          k = 0.3536 0.0000 0.0000 (  1828 PWs)   bands (ev):

   -16.6971 -16.6971 -16.6852 -16.6085 -16.5734 -16.5189 -16.4498 -16.4056
   -16.4030 -16.4030  -3.6188   3.4064   6.1508   6.1508

          k =-0.1768-0.5303 0.5303 (  1821 PWs)   bands (ev):

   -16.7245 -16.7094 -16.6413 -16.5737 -16.5542 -16.5355 -16.4873 -16.4558
   -16.3829 -16.3685  -2.1303   0.7528   4.4377   5.7862

          k = 0.0000-0.3536 0.3536 (  1829 PWs)   bands (ev):

   -16.7197 -16.7122 -16.6350 -16.5984 -16.5709 -16.4989 -16.4795 -16.4664
   -16.3793 -16.3760  -2.7443   1.6071   4.2979   6.6867

          k =-0.7071 0.0000 0.0000 (  1772 PWs)   bands (ev):

   -16.7128 -16.7128 -16.6272 -16.6272 -16.5278 -16.5278 -16.4703 -16.4703
   -16.3769 -16.3769  -0.7472  -0.7472   5.1123   5.1123

          k =-0.7071 0.3536 0.0000 (  1800 PWs)   bands (ev):

   -16.7266 -16.7266 -16.5847 -16.5847 -16.5356 -16.5356 -16.5034 -16.5034
   -16.3647 -16.3647  -0.6493  -0.6493   4.2629   4.2629

     highest occupied level (ev):     8.1965

!    total energy              =    -426.15150075 Ry
     estimated scf accuracy    <       0.00000004 Ry

     The total energy is the sum of the following terms:
     one-electron contribution =    -279.23760240 Ry
     hartree contribution      =     165.13183822 Ry
     xc contribution           =    -114.55126151 Ry
     ewald contribution        =    -197.49447507 Ry

     convergence has been achieved in   6 iterations

     Forces acting on atoms (cartesian axes, Ry/au):

     atom    1 type  1   force =     0.00000000    0.00000000    0.00000000
     atom    2 type  1   force =     0.00000000    0.00000000    0.00000000

     Total force =     0.000000     Total SCF correction =     0.000000


     Computing stress (Cartesian axis) and pressure

          total   stress  (Ry/bohr**3)                   (kbar)     P=       -4.06
  -0.00002757  -0.00000000   0.00000000           -4.06       -0.00        0.00
  -0.00000000  -0.00002757  -0.00000000           -0.00       -4.06       -0.00
  -0.00000000   0.00000000  -0.00002757           -0.00        0.00       -4.06

     Message from routine punch:
     Nothing written, as per user request (disk_io='none')

     init_run     :      0.86s CPU      0.90s WALL (       1 calls)
     electrons    :      3.41s CPU      3.75s WALL (       1 calls)
     forces       :      0.10s CPU      0.12s WALL (       1 calls)
     stress       :      0.81s CPU      0.86s WALL (       1 calls)

     Called by init_run:
     wfcinit      :      0.32s CPU      0.33s WALL (       1 calls)
     potinit      :      0.02s CPU      0.02s WALL (       1 calls)
     hinit0       :      0.46s CPU      0.46s WALL (       1 calls)

     Called by electrons:
     c_bands      :      2.27s CPU      2.36s WALL (       7 calls)
     sum_band     :      0.79s CPU      0.92s WALL (       7 calls)
     v_of_rho     :      0.03s CPU      0.03s WALL (       7 calls)
     newd         :      0.36s CPU      0.50s WALL (       7 calls)
     mix_rho      :      0.01s CPU      0.01s WALL (       7 calls)

     Called by c_bands:
     init_us_2    :      0.10s CPU      0.10s WALL (     136 calls)
     cegterg      :      2.06s CPU      2.14s WALL (      56 calls)

     Called by *egterg:
     cdiaghg      :      0.05s CPU      0.05s WALL (     188 calls)
     h_psi        :      2.03s CPU      2.09s WALL (     204 calls)
     s_psi        :      0.05s CPU      0.05s WALL (     204 calls)
     g_psi        :      0.01s CPU      0.01s WALL (     140 calls)

     Called by h_psi:
     h_psi:calbec :      0.07s CPU      0.07s WALL (     204 calls)
     vloc_psi     :      1.89s CPU      1.95s WALL (     204 calls)
     add_vuspsi   :      0.06s CPU      0.06s WALL (     204 calls)

     General routines
     calbec       :      0.14s CPU      0.14s WALL (     396 calls)
     fft          :      0.23s CPU      0.24s WALL (      37 calls)
     ffts         :      0.00s CPU      0.00s WALL (       7 calls)
     fftw         :      1.87s CPU      1.92s WALL (    5042 calls)

     Parallel routines

     PWSCF        :      5.33s CPU      5.77s WALL


   This run was terminated on:  23:57:43   7Oct2025            

=------------------------------------------------------------------------------=
   JOB DONE.
=------------------------------------------------------------------------------=
