
     Program PWSCF v.7.4.1 starts on 20Oct2025 at 16:57:50 

     This program is part of the open-source Quantum ESPRESSO suite
     for quantum simulation of materials; please cite
         "P. Giannozzi et al., J. Phys.:Condens. Matter 21 395502 (2009);
         "P. Giannozzi et al., J. Phys.:Condens. Matter 29 465901 (2017);
         "P. Giannozzi et al., J. Chem. Phys. 152 154105 (2020);
          URL http://www.quantum-espresso.org", 
     in publications or presentations arising from this work. More details at
     http://www.quantum-espresso.org/quote

     Parallel version (MPI), running on     2 processors

     MPI processes distributed on     1 nodes
     252 MiB available memory on the printing compute node when the environment starts

     Waiting for input...
     Reading input from standard input

     Current dimensions of program PWSCF are:
     Max number of different atomic species (ntypx) = 10
     Max number of k-points (npk) =  40000
     Max angular momentum in pseudopotentials (lmaxx) =  4
     file Fe.pbe-nd-rrkjus.UPF: wavefunction(s)  4S renormalized
     Message from routine setup:
     using ibrav=0 with symmetry is DISCOURAGED, use correct ibrav instead

     R & G space division:  proc/nbgrp/npool/nimage =       2
     Subspace diagonalization in iterative solution of the eigenvalue problem:
     a serial algorithm will be used


     Parallelization info
     --------------------
     sticks:   dense  smooth     PW     G-vecs:    dense   smooth      PW
     Min         218      86     31                 2887      739     160
     Max         219      87     32                 2888      742     161
     Sum         437     173     63                 5775     1481     321

     Using Slab Decomposition



     bravais-lattice index     =            0
     lattice parameter (alat)  =       4.4187  a.u.
     unit-cell volume          =      66.4137 (a.u.)^3
     number of atoms/cell      =            1
     number of atomic types    =            1
     number of electrons       =         8.00
     number of Kohn-Sham states=            8
     kinetic-energy cutoff     =      30.0000  Ry
     charge density cutoff     =     300.0000  Ry
     scf convergence threshold =      1.0E-07
     mixing beta               =       0.5000
     number of iterations used =            8  plain     mixing
     energy convergence thresh.=      1.0E-04
     force convergence thresh. =      1.0E-03
     press convergence thresh. =      5.0E-01
     Exchange-correlation=  SLA  PW   PBE  PBE
                           (   1   4   3   4   0   0   0)
     nstep                     =           50


     celldm(1)=   4.418687  celldm(2)=   0.000000  celldm(3)=   0.000000
     celldm(4)=   0.000000  celldm(5)=   0.000000  celldm(6)=   0.000000

     crystal axes: (cart. coord. in units of alat)
               a(1) = (  -0.577350   0.577350   0.577350 )  
               a(2) = (   0.577350  -0.577350   0.577350 )  
               a(3) = (   0.577350   0.577350  -0.577350 )  

     reciprocal axes: (cart. coord. in units 2 pi/alat)
               b(1) = (  0.000000  0.866025  0.866025 )  
               b(2) = (  0.866025  0.000000  0.866025 )  
               b(3) = (  0.866025  0.866025  0.000000 )  


     PseudoPot. # 1 for Fe read from file:
     /home/bond/Software/QE/qe-7.4.1/pseudo/Fe.pbe-nd-rrkjus.UPF
     MD5 check sum: 398036227a04b607635f6f5e8dfd8242
     Pseudo is Ultrasoft + core correction, Zval =  8.0
     Generated by new atomic code, or converted to UPF format
     Using radial grid of  957 points,  6 beta functions with: 
                l(1) =   0
                l(2) =   0
                l(3) =   1
                l(4) =   1
                l(5) =   2
                l(6) =   2
     Q(r) pseudized with 0 coefficients 


     atomic species   valence    mass     pseudopotential
     Fe                8.00    55.84500     Fe( 1.00)

     Starting magnetic structure 
     atomic species   magnetization
     Fe              0.700

     48 Sym. Ops., with inversion, found



   Cartesian axes

     site n.     atom                  positions (alat units)
         1        Fe     tau(   1) = (   0.0000000   0.0000000   0.0000000  )

     number of k points=     4  Methfessel-Paxton smearing, width (Ry)=  0.0200
                       cart. coord. in units 2pi/alat
        k(    1) = (   0.0000000   0.0000000   0.0000000), wk =   0.0370370
        k(    2) = (   0.2886751   0.2886751   0.0000000), wk =   0.4444444
        k(    3) = (   0.5773503   0.2886751   0.2886751), wk =   0.2962963
        k(    4) = (  -0.0000000  -0.0000000   0.5773503), wk =   0.2222222

     Dense  grid:     5775 G-vectors     FFT dimensions: (  25,  25,  25)

     Smooth grid:     1481 G-vectors     FFT dimensions: (  15,  15,  15)

     Estimated max dynamical RAM per process >      14.77 MB

     Estimated total dynamical RAM >      29.53 MB

     Check: negative core charge=   -0.000001
     Generating pointlists ...
     new r_m :   0.4125 (alat units)  1.8227 (a.u.) for type    1

     Initial potential from superposition of free atoms

     starting charge       7.9994, renormalised to       8.0000
     Starting wfcs are    6 randomized atomic wfcs +    2 random wfcs

     total cpu time spent up to now is        0.4 secs

     Self-consistent Calculation

     iteration #  1     ecut=    30.00 Ry     beta= 0.50
     Davidson diagonalization with overlap
     ethr =  1.00E-02,  avg # of iterations =  4.1

     total cpu time spent up to now is        0.5 secs

     total energy              =     -55.69661168 Ry
     estimated scf accuracy    <       0.25989834 Ry

     total magnetization       =     2.96 Bohr mag/cell
     absolute magnetization    =     2.96 Bohr mag/cell

     iteration #  2     ecut=    30.00 Ry     beta= 0.50
     Davidson diagonalization with overlap
     ethr =  3.25E-03,  avg # of iterations =  1.6

     total cpu time spent up to now is        0.5 secs

     total energy              =     -55.76745145 Ry
     estimated scf accuracy    <       0.01578911 Ry

     total magnetization       =     2.96 Bohr mag/cell
     absolute magnetization    =     2.96 Bohr mag/cell

     iteration #  3     ecut=    30.00 Ry     beta= 0.50
     Davidson diagonalization with overlap
     ethr =  1.97E-04,  avg # of iterations =  2.6

     total cpu time spent up to now is        0.6 secs

     total energy              =     -55.77817787 Ry
     estimated scf accuracy    <       0.00317309 Ry

     total magnetization       =     2.96 Bohr mag/cell
     absolute magnetization    =     2.97 Bohr mag/cell

     iteration #  4     ecut=    30.00 Ry     beta= 0.50
     Davidson diagonalization with overlap
     ethr =  3.97E-05,  avg # of iterations =  2.9

     total cpu time spent up to now is        0.6 secs

     total energy              =     -55.77858189 Ry
     estimated scf accuracy    <       0.00015208 Ry

     total magnetization       =     2.99 Bohr mag/cell
     absolute magnetization    =     3.00 Bohr mag/cell

     iteration #  5     ecut=    30.00 Ry     beta= 0.50
     Davidson diagonalization with overlap
     ethr =  1.90E-06,  avg # of iterations =  5.4

     total cpu time spent up to now is        0.7 secs

     total energy              =     -55.77875547 Ry
     estimated scf accuracy    <       0.00019130 Ry

     total magnetization       =     2.96 Bohr mag/cell
     absolute magnetization    =     2.99 Bohr mag/cell

     iteration #  6     ecut=    30.00 Ry     beta= 0.50
     Davidson diagonalization with overlap
     ethr =  1.90E-06,  avg # of iterations =  1.2

     total cpu time spent up to now is        0.7 secs

     total energy              =     -55.77877558 Ry
     estimated scf accuracy    <       0.00001640 Ry

     total magnetization       =     2.96 Bohr mag/cell
     absolute magnetization    =     2.99 Bohr mag/cell

     iteration #  7     ecut=    30.00 Ry     beta= 0.50
     Davidson diagonalization with overlap
     ethr =  2.05E-07,  avg # of iterations =  2.5

     total cpu time spent up to now is        0.8 secs

     total energy              =     -55.77878014 Ry
     estimated scf accuracy    <       0.00000050 Ry

     total magnetization       =     2.96 Bohr mag/cell
     absolute magnetization    =     2.99 Bohr mag/cell

     iteration #  8     ecut=    30.00 Ry     beta= 0.50
     Davidson diagonalization with overlap
     ethr =  6.30E-09,  avg # of iterations =  4.1

     Magnetic moment per site  (integrated on atomic sphere of radius R)
     atom   1 (R=0.413)  charge=  6.3533  magn=  2.9106

     total cpu time spent up to now is        0.8 secs

     End of self-consistent calculation

 ------ SPIN UP ------------


          k = 0.0000 0.0000 0.0000 (   177 PWs)   bands (ev):

     6.9174  13.2524  13.2524  13.2524  15.0119  15.0119  42.2187  42.2188

          k = 0.2887 0.2887 0.0000 (   182 PWs)   bands (ev):

    10.1832  12.2358  13.9643  14.8946  15.1706  15.6115  29.7558  37.1529

          k = 0.5774 0.2887 0.2887 (   185 PWs)   bands (ev):

    11.6160  12.4552  12.4552  15.2748  15.2748  23.9315  23.9315  27.1346

          k =-0.0000-0.0000 0.5774 (   196 PWs)   bands (ev):

    11.2283  11.4409  14.6490  14.6490  15.4488  19.7329  31.4345  31.4345

 ------ SPIN DOWN ----------


          k = 0.0000 0.0000 0.0000 (   177 PWs)   bands (ev):

     7.3822  16.2885  16.2885  16.2885  18.4643  18.4643  42.3164  42.3164

          k = 0.2887 0.2887 0.0000 (   182 PWs)   bands (ev):

    11.3560  15.0287  15.7786  18.2609  18.6865  18.9398  31.2337  37.4658

          k = 0.5774 0.2887 0.2887 (   185 PWs)   bands (ev):

    14.0588  14.6224  14.6224  18.6869  18.6869  25.7114  25.7114  28.6083

          k =-0.0000-0.0000 0.5774 (   196 PWs)   bands (ev):

    13.0859  13.9343  17.6571  17.6571  18.7724  21.6300  32.5625  32.5625

     the Fermi energy is    15.8073 ev

!    total energy              =     -55.77878074 Ry
     estimated scf accuracy    <          6.5E-09 Ry
     smearing contrib. (-TS)   =      -0.00053982 Ry
     internal energy E=F+TS    =     -55.77824093 Ry

     The total energy is F=E-TS. E is the sum of the following terms:
     one-electron contribution =      10.73371191 Ry
     hartree contribution      =       5.79163874 Ry
     xc contribution           =     -26.65501305 Ry
     ewald contribution        =     -45.64857853 Ry

     total magnetization       =     2.96 Bohr mag/cell
     absolute magnetization    =     2.99 Bohr mag/cell

     convergence has been achieved in   8 iterations

     Forces acting on atoms (cartesian axes, Ry/au):

     atom    1 type  1   force =     0.00000000    0.00000000    0.00000000

     Total force =     0.000000     Total SCF correction =     0.000000


     Computing stress (Cartesian axis) and pressure

          total   stress  (Ry/bohr**3)                   (kbar)     P=      692.92
   0.00471035   0.00000000   0.00000000          692.92        0.00        0.00
  -0.00000000   0.00471035   0.00000000           -0.00      692.92        0.00
  -0.00000000   0.00000000   0.00471035           -0.00        0.00      692.92


     BFGS Geometry Optimization
     Energy error            =      9.0E-02 Ry
     Gradient error          =      0.0E+00 Ry/Bohr
     Cell gradient error     =      6.9E+02 kbar

     number of scf cycles    =   1
     number of bfgs steps    =   0

     enthalpy           new  =     -55.7787807449 Ry

     new trust radius        =       0.1919341972 bohr
     new conv_thr            =       0.0000001000 Ry

     new unit-cell volume =     92.74750 a.u.^3 (    13.74376 Ang^3 )
     density =      6.74727 g/cm^3

CELL_PARAMETERS (angstrom)
  -1.508974396   1.508974396   1.508974396
   1.508974396  -1.508974396   1.508974396
   1.508974396   1.508974396  -1.508974396

ATOMIC_POSITIONS (angstrom)
Fe               0.0000000000        0.0000000000        0.0000000000


     Message from routine punch:
     Nothing written, as per user request (disk_io='none')
     NEW-OLD atomic charge density approx. for the potential
     New effective cutoffs (rho, wfc):  237.90   24.01
     Generating pointlists ...

     total cpu time spent up to now is        1.0 secs

     Self-consistent Calculation

     iteration #  1     ecut=    30.00 Ry     beta= 0.50
     Davidson diagonalization with overlap
     ethr =  1.00E-06,  avg # of iterations =  6.4

     total cpu time spent up to now is        1.0 secs

     total energy              =     -55.80479992 Ry
     estimated scf accuracy    <       0.00369913 Ry

     total magnetization       =     2.96 Bohr mag/cell
     absolute magnetization    =     3.04 Bohr mag/cell

     iteration #  2     ecut=    30.00 Ry     beta= 0.50
     Davidson diagonalization with overlap
     ethr =  4.62E-05,  avg # of iterations =  1.4

     total cpu time spent up to now is        1.0 secs

     total energy              =     -55.80570710 Ry
     estimated scf accuracy    <       0.00114167 Ry

     total magnetization       =     2.96 Bohr mag/cell
     absolute magnetization    =     3.06 Bohr mag/cell

     iteration #  3     ecut=    30.00 Ry     beta= 0.50
     Davidson diagonalization with overlap
     ethr =  1.43E-05,  avg # of iterations =  1.2

     total cpu time spent up to now is        1.1 secs

     total energy              =     -55.80604230 Ry
     estimated scf accuracy    <       0.00031449 Ry

     total magnetization       =     2.96 Bohr mag/cell
     absolute magnetization    =     3.07 Bohr mag/cell

     iteration #  4     ecut=    30.00 Ry     beta= 0.50
     Davidson diagonalization with overlap
     ethr =  3.93E-06,  avg # of iterations =  1.9

     total cpu time spent up to now is        1.1 secs

     total energy              =     -55.80614061 Ry
     estimated scf accuracy    <       0.00000434 Ry

     total magnetization       =     2.96 Bohr mag/cell
     absolute magnetization    =     3.09 Bohr mag/cell

     iteration #  5     ecut=    30.00 Ry     beta= 0.50
     Davidson diagonalization with overlap
     ethr =  5.43E-08,  avg # of iterations =  4.1

     total cpu time spent up to now is        1.2 secs

     total energy              =     -55.80615199 Ry
     estimated scf accuracy    <       0.00000055 Ry

     total magnetization       =     2.96 Bohr mag/cell
     absolute magnetization    =     3.09 Bohr mag/cell

     iteration #  6     ecut=    30.00 Ry     beta= 0.50
     Davidson diagonalization with overlap
     ethr =  6.83E-09,  avg # of iterations =  3.5

     Magnetic moment per site  (integrated on atomic sphere of radius R)
     atom   1 (R=0.413)  charge=  6.0481  magn=  2.9647

     total cpu time spent up to now is        1.2 secs

     End of self-consistent calculation

 ------ SPIN UP ------------


          k = 0.0000 0.0000 0.0000 (   177 PWs)   bands (ev):

     3.0588   8.0641   8.0641   8.0641   9.0713   9.0713  33.3815  33.3815

          k = 0.2583 0.2583 0.0000 (   182 PWs)   bands (ev):

     5.9122   7.4749   8.5766   9.0211   9.1485   9.4818  20.6438  28.3120

          k = 0.5165 0.2583 0.2583 (   185 PWs)   bands (ev):

     7.0831   7.6210   7.6210   9.2398   9.2398  16.1408  16.1408  17.9828

          k =-0.0000-0.0000 0.5165 (   196 PWs)   bands (ev):

     6.8284   7.0372   8.9331   8.9331   9.3910  12.6190  22.1842  22.1842

 ------ SPIN DOWN ----------


          k = 0.0000 0.0000 0.0000 (   177 PWs)   bands (ev):

     3.2731  11.0887  11.0887  11.0887  12.5904  12.5904  33.1298  33.1299

          k = 0.2583 0.2583 0.0000 (   182 PWs)   bands (ev):

     6.7002  10.2849  10.5841  12.4154  12.7169  12.7829  21.7968  28.3928

          k = 0.5165 0.2583 0.2583 (   185 PWs)   bands (ev):

     9.5240   9.8125   9.8125  12.6757  12.6757  17.5916  17.5916  19.2397

          k =-0.0000-0.0000 0.5165 (   196 PWs)   bands (ev):

     8.6204   9.6957  11.9513  11.9513  12.6914  14.3835  22.9743  22.9744

     the Fermi energy is    10.6009 ev

!    total energy              =     -55.80615269 Ry
     estimated scf accuracy    <          4.2E-09 Ry
     smearing contrib. (-TS)   =      -0.00061256 Ry
     internal energy E=F+TS    =     -55.80554013 Ry

     The total energy is F=E-TS. E is the sum of the following terms:
     one-electron contribution =       3.89975638 Ry
     hartree contribution      =       7.54731847 Ry
     xc contribution           =     -26.41323349 Ry
     ewald contribution        =     -40.83938149 Ry

     total magnetization       =     2.96 Bohr mag/cell
     absolute magnetization    =     3.09 Bohr mag/cell

     convergence has been achieved in   6 iterations

     Forces acting on atoms (cartesian axes, Ry/au):

     atom    1 type  1   force =     0.00000000    0.00000000    0.00000000

     Total force =     0.000000     Total SCF correction =     0.000000


     Computing stress (Cartesian axis) and pressure

          total   stress  (Ry/bohr**3)                   (kbar)     P=     -149.35
  -0.00101524   0.00000000   0.00000000         -149.35        0.00        0.00
   0.00000000  -0.00101524   0.00000000            0.00     -149.35        0.00
   0.00000000   0.00000000  -0.00101524            0.00        0.00     -149.35

     Energy error            =      2.7E-02 Ry
     Gradient error          =      0.0E+00 Ry/Bohr
     Cell gradient error     =      1.5E+02 kbar

     number of scf cycles    =   2
     number of bfgs steps    =   1

     enthalpy           old  =     -55.7787807449 Ry
     enthalpy           new  =     -55.8061526853 Ry

     CASE: enthalpy          _new < enthalpy          _old

     new trust radius        =       0.0430506002 bohr
     new conv_thr            =       0.0000000010 Ry

     new unit-cell volume =     86.66645 a.u.^3 (    12.84264 Ang^3 )
     density =      7.22069 g/cm^3

CELL_PARAMETERS (angstrom)
  -1.475247220   1.475247220   1.475247220
   1.475247220  -1.475247220   1.475247220
   1.475247220   1.475247220  -1.475247220

ATOMIC_POSITIONS (angstrom)
Fe               0.0000000000        0.0000000000        0.0000000000


     Message from routine punch:
     Nothing written, as per user request (disk_io='none')
     NEW-OLD atomic charge density approx. for the potential
     New effective cutoffs (rho, wfc):  248.90   25.12
     Generating pointlists ...

     total cpu time spent up to now is        1.3 secs

     Self-consistent Calculation

     iteration #  1     ecut=    30.00 Ry     beta= 0.50
     Davidson diagonalization with overlap
     ethr =  1.00E-06,  avg # of iterations =  4.9

     total cpu time spent up to now is        1.4 secs

     total energy              =     -55.81063494 Ry
     estimated scf accuracy    <       0.00012095 Ry

     total magnetization       =     2.96 Bohr mag/cell
     absolute magnetization    =     3.07 Bohr mag/cell

     iteration #  2     ecut=    30.00 Ry     beta= 0.50
     Davidson diagonalization with overlap
     ethr =  1.51E-06,  avg # of iterations =  1.0

     total cpu time spent up to now is        1.4 secs

     total energy              =     -55.81067108 Ry
     estimated scf accuracy    <       0.00003968 Ry

     total magnetization       =     2.96 Bohr mag/cell
     absolute magnetization    =     3.07 Bohr mag/cell

     iteration #  3     ecut=    30.00 Ry     beta= 0.50
     Davidson diagonalization with overlap
     ethr =  4.96E-07,  avg # of iterations =  1.5

     total cpu time spent up to now is        1.5 secs

     total energy              =     -55.81068000 Ry
     estimated scf accuracy    <       0.00000383 Ry

     total magnetization       =     2.96 Bohr mag/cell
     absolute magnetization    =     3.07 Bohr mag/cell

     iteration #  4     ecut=    30.00 Ry     beta= 0.50
     Davidson diagonalization with overlap
     ethr =  4.79E-08,  avg # of iterations =  2.0

     total cpu time spent up to now is        1.5 secs

     total energy              =     -55.81068170 Ry
     estimated scf accuracy    <       0.00000021 Ry

     total magnetization       =     2.96 Bohr mag/cell
     absolute magnetization    =     3.07 Bohr mag/cell

     iteration #  5     ecut=    30.00 Ry     beta= 0.50
     Davidson diagonalization with overlap
     ethr =  2.59E-09,  avg # of iterations =  3.5

     total cpu time spent up to now is        1.6 secs

     total energy              =     -55.81068204 Ry
     estimated scf accuracy    <       0.00000007 Ry

     total magnetization       =     2.96 Bohr mag/cell
     absolute magnetization    =     3.06 Bohr mag/cell

     iteration #  6     ecut=    30.00 Ry     beta= 0.50
     Davidson diagonalization with overlap
     ethr =  9.32E-10,  avg # of iterations =  2.2

     Magnetic moment per site  (integrated on atomic sphere of radius R)
     atom   1 (R=0.413)  charge=  6.0924  magn=  2.9509

     total cpu time spent up to now is        1.6 secs

     End of self-consistent calculation

 ------ SPIN UP ------------


          k = 0.0000 0.0000 0.0000 (   177 PWs)   bands (ev):

     3.7086   9.0040   9.0040   9.0040  10.1379  10.1379  35.0185  35.0185

          k = 0.2642 0.2642 0.0000 (   182 PWs)   bands (ev):

     6.6667   8.3441   9.5319  10.0739  10.2285  10.5788  22.2657  29.9469

          k = 0.5283 0.2642 0.2642 (   185 PWs)   bands (ev):

     7.9096   8.4941   8.4941  10.3208  10.3208  17.5056  17.5056  19.6124

          k =-0.0000 0.0000 0.5283 (   196 PWs)   bands (ev):

     7.6242   7.8503   9.9613   9.9613  10.4770  13.8634  23.8268  23.8268

 ------ SPIN DOWN ----------


          k = 0.0000 0.0000 0.0000 (   177 PWs)   bands (ev):

     3.9692  12.0280  12.0280  12.0280  13.6444  13.6444  34.8338  34.8338

          k = 0.2642 0.2642 0.0000 (   182 PWs)   bands (ev):

     7.5189  11.1470  11.5016  13.4638  13.7870  13.8836  23.4854  30.0671

          k = 0.5283 0.2642 0.2642 (   185 PWs)   bands (ev):

    10.3457  10.6701  10.6701  13.7516  13.7516  19.0291  19.0291  20.9113

          k =-0.0000 0.0000 0.5283 (   196 PWs)   bands (ev):

     9.4198  10.4718  12.9742  12.9742  13.7805  15.6590  24.6833  24.6833

     the Fermi energy is    11.5188 ev

!    total energy              =     -55.81068208 Ry
     estimated scf accuracy    <          9.6E-10 Ry
     smearing contrib. (-TS)   =      -0.00065010 Ry
     internal energy E=F+TS    =     -55.81003198 Ry

     The total energy is F=E-TS. E is the sum of the following terms:
     one-electron contribution =       5.24267834 Ry
     hartree contribution      =       7.17116428 Ry
     xc contribution           =     -26.45082112 Ry
     ewald contribution        =     -41.77305348 Ry

     total magnetization       =     2.96 Bohr mag/cell
     absolute magnetization    =     3.06 Bohr mag/cell

     convergence has been achieved in   6 iterations

     Forces acting on atoms (cartesian axes, Ry/au):

     atom    1 type  1   force =     0.00000000    0.00000000    0.00000000

     Total force =     0.000000     Total SCF correction =     0.000000


     Computing stress (Cartesian axis) and pressure

          total   stress  (Ry/bohr**3)                   (kbar)     P=      -62.94
  -0.00042787  -0.00000000  -0.00000000          -62.94       -0.00       -0.00
  -0.00000000  -0.00042787  -0.00000000           -0.00      -62.94       -0.00
  -0.00000000  -0.00000000  -0.00042787           -0.00       -0.00      -62.94

     Energy error            =      4.5E-03 Ry
     Gradient error          =      0.0E+00 Ry/Bohr
     Cell gradient error     =      6.3E+01 kbar

     number of scf cycles    =   3
     number of bfgs steps    =   2

     enthalpy           old  =     -55.8061526853 Ry
     enthalpy           new  =     -55.8106820818 Ry

     CASE: enthalpy          _new < enthalpy          _old

     new trust radius        =       0.0287121254 bohr
     new conv_thr            =       0.0000000010 Ry

     new unit-cell volume =     82.71854 a.u.^3 (    12.25762 Ang^3 )
     density =      7.56532 g/cm^3

CELL_PARAMETERS (angstrom)
  -1.452497574   1.452497574   1.452497574
   1.452497574  -1.452497574   1.452497574
   1.452497574   1.452497574  -1.452497574

ATOMIC_POSITIONS (angstrom)
Fe               0.0000000000        0.0000000000        0.0000000000


     Message from routine punch:
     Nothing written, as per user request (disk_io='none')
     NEW-OLD atomic charge density approx. for the potential
     New effective cutoffs (rho, wfc):  256.76   25.91

     Check: negative core charge=   -0.000002
     Generating pointlists ...

     total cpu time spent up to now is        1.7 secs

     Self-consistent Calculation

     iteration #  1     ecut=    30.00 Ry     beta= 0.50
     Davidson diagonalization with overlap
     ethr =  1.00E-06,  avg # of iterations =  4.8

     total cpu time spent up to now is        1.8 secs

     total energy              =     -55.81136562 Ry
     estimated scf accuracy    <       0.00005919 Ry

     total magnetization       =     2.96 Bohr mag/cell
     absolute magnetization    =     3.05 Bohr mag/cell

     iteration #  2     ecut=    30.00 Ry     beta= 0.50
     Davidson diagonalization with overlap
     ethr =  7.40E-07,  avg # of iterations =  1.2

     total cpu time spent up to now is        1.8 secs

     total energy              =     -55.81138261 Ry
     estimated scf accuracy    <       0.00001895 Ry

     total magnetization       =     2.96 Bohr mag/cell
     absolute magnetization    =     3.05 Bohr mag/cell

     iteration #  3     ecut=    30.00 Ry     beta= 0.50
     Davidson diagonalization with overlap
     ethr =  2.37E-07,  avg # of iterations =  1.4

     total cpu time spent up to now is        1.9 secs

     total energy              =     -55.81138689 Ry
     estimated scf accuracy    <       0.00000279 Ry

     total magnetization       =     2.96 Bohr mag/cell
     absolute magnetization    =     3.05 Bohr mag/cell

     iteration #  4     ecut=    30.00 Ry     beta= 0.50
     Davidson diagonalization with overlap
     ethr =  3.48E-08,  avg # of iterations =  2.0

     total cpu time spent up to now is        1.9 secs

     total energy              =     -55.81138797 Ry
     estimated scf accuracy    <       0.00000008 Ry

     total magnetization       =     2.96 Bohr mag/cell
     absolute magnetization    =     3.05 Bohr mag/cell

     iteration #  5     ecut=    30.00 Ry     beta= 0.50
     Davidson diagonalization with overlap
     ethr =  1.04E-09,  avg # of iterations =  4.4

     total cpu time spent up to now is        1.9 secs

     total energy              =     -55.81138815 Ry
     estimated scf accuracy    <       0.00000001 Ry

     total magnetization       =     2.96 Bohr mag/cell
     absolute magnetization    =     3.05 Bohr mag/cell

     iteration #  6     ecut=    30.00 Ry     beta= 0.50
     Davidson diagonalization with overlap
     ethr =  1.61E-10,  avg # of iterations =  2.5

     Magnetic moment per site  (integrated on atomic sphere of radius R)
     atom   1 (R=0.413)  charge=  6.1266  magn=  2.9426

     total cpu time spent up to now is        2.0 secs

     End of self-consistent calculation

 ------ SPIN UP ------------


          k = 0.0000 0.0000 0.0000 (   177 PWs)   bands (ev):

     4.1911   9.6808   9.6808   9.6808  10.9099  10.9099  36.1889  36.1889

          k = 0.2683 0.2683 0.0000 (   182 PWs)   bands (ev):

     7.2164   8.9680  10.2254  10.8361  11.0105  11.3726  23.4441  31.1166

          k = 0.5366 0.2683 0.2683 (   185 PWs)   bands (ev):

     8.5031   9.1235   9.1235  11.1033  11.1033  18.5038  18.5038  20.7959

          k =-0.0000 0.0000 0.5366 (   196 PWs)   bands (ev):

     8.1979   8.4322  10.7037  10.7037  11.2622  14.7738  25.0210  25.0210

 ------ SPIN DOWN ----------


          k = 0.0000 0.0000 0.0000 (   177 PWs)   bands (ev):

     4.4849  12.7065  12.7065  12.7065  14.4063  14.4063  36.0514  36.0514

          k = 0.2683 0.2683 0.0000 (   182 PWs)   bands (ev):

     8.1171  11.7682  12.1689  14.2220  14.5609  14.6818  24.7095  31.2655

          k = 0.5366 0.2683 0.2683 (   185 PWs)   bands (ev):

    10.9385  11.2923  11.2923  14.5305  14.5305  20.0755  20.0755  22.1246

          k =-0.0000 0.0000 0.5366 (   196 PWs)   bands (ev):

     9.9987  11.0284  13.7150  13.7150  14.5696  16.5887  25.9245  25.9245

     the Fermi energy is    12.1883 ev

!    total energy              =     -55.81138817 Ry
     estimated scf accuracy    <          1.5E-10 Ry
     smearing contrib. (-TS)   =      -0.00074336 Ry
     internal energy E=F+TS    =     -55.81064481 Ry

     The total energy is F=E-TS. E is the sum of the following terms:
     one-electron contribution =       6.17883501 Ry
     hartree contribution      =       6.91743768 Ry
     xc contribution           =     -26.47959636 Ry
     ewald contribution        =     -42.42732114 Ry

     total magnetization       =     2.96 Bohr mag/cell
     absolute magnetization    =     3.05 Bohr mag/cell

     convergence has been achieved in   6 iterations

     Forces acting on atoms (cartesian axes, Ry/au):

     atom    1 type  1   force =     0.00000000    0.00000000    0.00000000

     Total force =     0.000000     Total SCF correction =     0.000000


     Computing stress (Cartesian axis) and pressure

          total   stress  (Ry/bohr**3)                   (kbar)     P=       14.47
   0.00009834   0.00000000  -0.00000000           14.47        0.00       -0.00
  -0.00000000   0.00009834  -0.00000000           -0.00       14.47       -0.00
  -0.00000000  -0.00000000   0.00009834           -0.00       -0.00       14.47

     Energy error            =      7.1E-04 Ry
     Gradient error          =      0.0E+00 Ry/Bohr
     Cell gradient error     =      1.4E+01 kbar

     number of scf cycles    =   4
     number of bfgs steps    =   3

     enthalpy           old  =     -55.8106820818 Ry
     enthalpy           new  =     -55.8113881672 Ry

     CASE: enthalpy          _new < enthalpy          _old

     new trust radius        =       0.0051912241 bohr
     new conv_thr            =       0.0000000010 Ry

     new unit-cell volume =     83.42877 a.u.^3 (    12.36287 Ang^3 )
     density =      7.50091 g/cm^3

CELL_PARAMETERS (angstrom)
  -1.456642853   1.456642853   1.456642853
   1.456642853  -1.456642853   1.456642853
   1.456642853   1.456642853  -1.456642853

ATOMIC_POSITIONS (angstrom)
Fe               0.0000000000        0.0000000000        0.0000000000


     Message from routine punch:
     Nothing written, as per user request (disk_io='none')
     NEW-OLD atomic charge density approx. for the potential
     New effective cutoffs (rho, wfc):  255.30   25.76

     Check: negative core charge=   -0.000002
     Generating pointlists ...

     total cpu time spent up to now is        2.1 secs

     Self-consistent Calculation

     iteration #  1     ecut=    30.00 Ry     beta= 0.50
     Davidson diagonalization with overlap
     ethr =  1.00E-06,  avg # of iterations =  3.1

     Threshold (ethr) on eigenvalues was too large:
     Diagonalizing with lowered threshold

     Davidson diagonalization with overlap
     ethr =  2.99E-08,  avg # of iterations =  1.8

     total cpu time spent up to now is        2.2 secs

     total energy              =     -55.81141858 Ry
     estimated scf accuracy    <       0.00000206 Ry

     total magnetization       =     2.96 Bohr mag/cell
     absolute magnetization    =     3.05 Bohr mag/cell

     iteration #  2     ecut=    30.00 Ry     beta= 0.50
     Davidson diagonalization with overlap
     ethr =  2.58E-08,  avg # of iterations =  1.2

     total cpu time spent up to now is        2.2 secs

     total energy              =     -55.81141915 Ry
     estimated scf accuracy    <       0.00000065 Ry

     total magnetization       =     2.96 Bohr mag/cell
     absolute magnetization    =     3.05 Bohr mag/cell

     iteration #  3     ecut=    30.00 Ry     beta= 0.50
     Davidson diagonalization with overlap
     ethr =  8.19E-09,  avg # of iterations =  1.2

     total cpu time spent up to now is        2.3 secs

     total energy              =     -55.81141932 Ry
     estimated scf accuracy    <       0.00000013 Ry

     total magnetization       =     2.96 Bohr mag/cell
     absolute magnetization    =     3.05 Bohr mag/cell

     iteration #  4     ecut=    30.00 Ry     beta= 0.50
     Davidson diagonalization with overlap
     ethr =  1.63E-09,  avg # of iterations =  1.9

     total cpu time spent up to now is        2.3 secs

     total energy              =     -55.81141936 Ry
     estimated scf accuracy    <          2.8E-09 Ry

     total magnetization       =     2.96 Bohr mag/cell
     absolute magnetization    =     3.05 Bohr mag/cell

     iteration #  5     ecut=    30.00 Ry     beta= 0.50
     Davidson diagonalization with overlap
     ethr =  3.55E-11,  avg # of iterations =  3.9

     Magnetic moment per site  (integrated on atomic sphere of radius R)
     atom   1 (R=0.413)  charge=  6.1195  magn=  2.9440

     total cpu time spent up to now is        2.3 secs

     End of self-consistent calculation

 ------ SPIN UP ------------


          k = 0.0000 0.0000 0.0000 (   177 PWs)   bands (ev):

     4.1003   9.5547   9.5547   9.5547  10.7658  10.7658  35.9714  35.9714

          k = 0.2675 0.2675 0.0000 (   182 PWs)   bands (ev):

     7.1136   8.8519  10.0958  10.6939  10.8646  11.2245  23.2240  30.8992

          k = 0.5351 0.2675 0.2675 (   185 PWs)   bands (ev):

     8.3926   9.0062   9.0062  10.9573  10.9573  18.3169  18.3169  20.5749

          k =-0.0000 0.0000 0.5351 (   196 PWs)   bands (ev):

     8.0909   8.3240  10.5652  10.5652  11.1157  14.6033  24.7979  24.7979

 ------ SPIN DOWN ----------


          k = 0.0000 0.0000 0.0000 (   177 PWs)   bands (ev):

     4.3881  12.5799  12.5799  12.5799  14.2640  14.2640  35.8254  35.8254

          k = 0.2675 0.2675 0.0000 (   182 PWs)   bands (ev):

     8.0053  11.6524  12.0441  14.0805  14.4164  14.5327  24.4811  31.0429

          k = 0.5351 0.2675 0.2675 (   185 PWs)   bands (ev):

    10.8280  11.1761  11.1761  14.3851  14.3851  19.8799  19.8799  21.8981

          k =-0.0000 0.0000 0.5351 (   196 PWs)   bands (ev):

     9.8907  10.9248  13.5767  13.5767  14.4223  16.4148  25.6927  25.6927

     the Fermi energy is    12.0631 ev

!    total energy              =     -55.81141936 Ry
     estimated scf accuracy    <          9.1E-10 Ry
     smearing contrib. (-TS)   =      -0.00072308 Ry
     internal energy E=F+TS    =     -55.81069629 Ry

     The total energy is F=E-TS. E is the sum of the following terms:
     one-electron contribution =       6.00633094 Ry
     hartree contribution      =       6.96370596 Ry
     xc contribution           =     -26.47415069 Ry
     ewald contribution        =     -42.30658249 Ry

     total magnetization       =     2.96 Bohr mag/cell
     absolute magnetization    =     3.05 Bohr mag/cell

     convergence has been achieved in   5 iterations

     Forces acting on atoms (cartesian axes, Ry/au):

     atom    1 type  1   force =     0.00000000    0.00000000    0.00000000

     Total force =     0.000000     Total SCF correction =     0.000000


     Computing stress (Cartesian axis) and pressure

          total   stress  (Ry/bohr**3)                   (kbar)     P=       -0.68
  -0.00000459   0.00000000   0.00000000           -0.68        0.00        0.00
   0.00000000  -0.00000459   0.00000000            0.00       -0.68        0.00
   0.00000000   0.00000000  -0.00000459            0.00        0.00       -0.68

     Energy error            =      3.1E-05 Ry
     Gradient error          =      0.0E+00 Ry/Bohr
     Cell gradient error     =      6.8E-01 kbar

     number of scf cycles    =   5
     number of bfgs steps    =   4

     enthalpy           old  =     -55.8113881672 Ry
     enthalpy           new  =     -55.8114193650 Ry

     CASE: enthalpy          _new < enthalpy          _old

     new trust radius        =       0.0002330719 bohr
     new conv_thr            =       0.0000000010 Ry

     new unit-cell volume =     83.39684 a.u.^3 (    12.35814 Ang^3 )
     density =      7.50379 g/cm^3

CELL_PARAMETERS (angstrom)
  -1.456457006   1.456457006   1.456457006
   1.456457006  -1.456457006   1.456457006
   1.456457006   1.456457006  -1.456457006

ATOMIC_POSITIONS (angstrom)
Fe               0.0000000000        0.0000000000        0.0000000000


     Message from routine punch:
     Nothing written, as per user request (disk_io='none')
     NEW-OLD atomic charge density approx. for the potential
     New effective cutoffs (rho, wfc):  255.37   25.77

     Check: negative core charge=   -0.000002
     Generating pointlists ...

     total cpu time spent up to now is        2.5 secs

     Self-consistent Calculation

     iteration #  1     ecut=    30.00 Ry     beta= 0.50
     Davidson diagonalization with overlap
     ethr =  1.00E-06,  avg # of iterations =  2.0

     Threshold (ethr) on eigenvalues was too large:
     Diagonalizing with lowered threshold

     Davidson diagonalization with overlap
     ethr =  6.83E-11,  avg # of iterations =  2.5

     total cpu time spent up to now is        2.5 secs

     total energy              =     -55.81141956 Ry
     estimated scf accuracy    <          4.9E-09 Ry

     total magnetization       =     2.96 Bohr mag/cell
     absolute magnetization    =     3.05 Bohr mag/cell

     iteration #  2     ecut=    30.00 Ry     beta= 0.50
     Davidson diagonalization with overlap
     ethr =  6.13E-11,  avg # of iterations =  1.1

     total cpu time spent up to now is        2.6 secs

     total energy              =     -55.81141957 Ry
     estimated scf accuracy    <          1.2E-09 Ry

     total magnetization       =     2.96 Bohr mag/cell
     absolute magnetization    =     3.05 Bohr mag/cell

     iteration #  3     ecut=    30.00 Ry     beta= 0.50
     Davidson diagonalization with overlap
     ethr =  1.52E-11,  avg # of iterations =  1.4

     Magnetic moment per site  (integrated on atomic sphere of radius R)
     atom   1 (R=0.413)  charge=  6.1198  magn=  2.9440

     total cpu time spent up to now is        2.6 secs

     End of self-consistent calculation

 ------ SPIN UP ------------


          k = 0.0000 0.0000 0.0000 (   177 PWs)   bands (ev):

     4.1044   9.5605   9.5605   9.5605  10.7724  10.7724  35.9811  35.9811

          k = 0.2676 0.2676 0.0000 (   182 PWs)   bands (ev):

     7.1183   8.8572  10.1017  10.7004  10.8712  11.2312  23.2339  30.9089

          k = 0.5351 0.2676 0.2676 (   185 PWs)   bands (ev):

     8.3977   9.0116   9.0116  10.9639  10.9639  18.3253  18.3253  20.5848

          k =-0.0000 0.0000 0.5351 (   196 PWs)   bands (ev):

     8.0958   8.3289  10.5715  10.5715  11.1224  14.6110  24.8079  24.8079

 ------ SPIN DOWN ----------


          k = 0.0000 0.0000 0.0000 (   177 PWs)   bands (ev):

     4.3923  12.5857  12.5857  12.5857  14.2706  14.2706  35.8354  35.8354

          k = 0.2676 0.2676 0.0000 (   182 PWs)   bands (ev):

     8.0102  11.6578  12.0498  14.0870  14.4231  14.5396  24.4913  31.0528

          k = 0.5351 0.2676 0.2676 (   185 PWs)   bands (ev):

    10.8330  11.1814  11.1814  14.3918  14.3918  19.8888  19.8888  21.9082

          k =-0.0000 0.0000 0.5351 (   196 PWs)   bands (ev):

     9.8955  10.9295  13.5830  13.5830  14.4290  16.4226  25.7031  25.7031

     the Fermi energy is    12.0687 ev

!    total energy              =     -55.81141957 Ry
     estimated scf accuracy    <          2.8E-10 Ry
     smearing contrib. (-TS)   =      -0.00072388 Ry
     internal energy E=F+TS    =     -55.81069568 Ry

     The total energy is F=E-TS. E is the sum of the following terms:
     one-electron contribution =       6.01411495 Ry
     hartree contribution      =       6.96151509 Ry
     xc contribution           =     -26.47434483 Ry
     ewald contribution        =     -42.31198090 Ry

     total magnetization       =     2.96 Bohr mag/cell
     absolute magnetization    =     3.05 Bohr mag/cell

     convergence has been achieved in   3 iterations

     Forces acting on atoms (cartesian axes, Ry/au):

     atom    1 type  1   force =     0.00000000    0.00000000    0.00000000

     Total force =     0.000000     Total SCF correction =     0.000000


     Computing stress (Cartesian axis) and pressure

          total   stress  (Ry/bohr**3)                   (kbar)     P=       -0.67
  -0.00000454  -0.00000000  -0.00000000           -0.67       -0.00       -0.00
  -0.00000000  -0.00000454  -0.00000000           -0.00       -0.67       -0.00
  -0.00000000  -0.00000000  -0.00000454           -0.00       -0.00       -0.67

     Energy error            =      2.0E-07 Ry
     Gradient error          =      0.0E+00 Ry/Bohr
     Cell gradient error     =      6.7E-01 kbar

     number of scf cycles    =   6
     number of bfgs steps    =   5

     enthalpy           old  =     -55.8114193650 Ry
     enthalpy           new  =     -55.8114195654 Ry

     CASE: enthalpy          _new < enthalpy          _old


     WARNING: bfgs curvature condition failed, Theta= 0.809
     new trust radius        =       0.0003495856 bohr
     new conv_thr            =       0.0000000010 Ry

     new unit-cell volume =     83.34896 a.u.^3 (    12.35104 Ang^3 )
     density =      7.50810 g/cm^3

CELL_PARAMETERS (angstrom)
  -1.456178236   1.456178236   1.456178236
   1.456178236  -1.456178236   1.456178236
   1.456178236   1.456178236  -1.456178236

ATOMIC_POSITIONS (angstrom)
Fe               0.0000000000        0.0000000000        0.0000000000


     Message from routine punch:
     Nothing written, as per user request (disk_io='none')
     NEW-OLD atomic charge density approx. for the potential
     New effective cutoffs (rho, wfc):  255.46   25.78

     Check: negative core charge=   -0.000002
     Generating pointlists ...

     total cpu time spent up to now is        2.7 secs

     Self-consistent Calculation

     iteration #  1     ecut=    30.00 Ry     beta= 0.50
     Davidson diagonalization with overlap
     ethr =  1.00E-06,  avg # of iterations =  2.0

     Threshold (ethr) on eigenvalues was too large:
     Diagonalizing with lowered threshold

     Davidson diagonalization with overlap
     ethr =  1.46E-10,  avg # of iterations =  2.5

     total cpu time spent up to now is        2.8 secs

     total energy              =     -55.81141958 Ry
     estimated scf accuracy    <       0.00000001 Ry

     total magnetization       =     2.96 Bohr mag/cell
     absolute magnetization    =     3.05 Bohr mag/cell

     iteration #  2     ecut=    30.00 Ry     beta= 0.50
     Davidson diagonalization with overlap
     ethr =  1.29E-10,  avg # of iterations =  1.2

     total cpu time spent up to now is        2.9 secs

     total energy              =     -55.81141959 Ry
     estimated scf accuracy    <          3.2E-09 Ry

     total magnetization       =     2.96 Bohr mag/cell
     absolute magnetization    =     3.05 Bohr mag/cell

     iteration #  3     ecut=    30.00 Ry     beta= 0.50
     Davidson diagonalization with overlap
     ethr =  4.02E-11,  avg # of iterations =  1.2

     Magnetic moment per site  (integrated on atomic sphere of radius R)
     atom   1 (R=0.413)  charge=  6.1203  magn=  2.9439

     total cpu time spent up to now is        2.9 secs

     End of self-consistent calculation

 ------ SPIN UP ------------


          k = 0.0000 0.0000 0.0000 (   177 PWs)   bands (ev):

     4.1105   9.5689   9.5689   9.5689  10.7819  10.7819  35.9958  35.9958

          k = 0.2676 0.2676 0.0000 (   182 PWs)   bands (ev):

     7.1252   8.8649  10.1103  10.7098  10.8809  11.2411  23.2486  30.9235

          k = 0.5353 0.2676 0.2676 (   185 PWs)   bands (ev):

     8.4050   9.0194   9.0194  10.9736  10.9736  18.3378  18.3378  20.5996

          k =-0.0000 0.0000 0.5353 (   196 PWs)   bands (ev):

     8.1029   8.3361  10.5807  10.5807  11.1321  14.6224  24.8228  24.8228

 ------ SPIN DOWN ----------


          k = 0.0000 0.0000 0.0000 (   177 PWs)   bands (ev):

     4.3988  12.5942  12.5942  12.5942  14.2801  14.2801  35.8505  35.8505

          k = 0.2676 0.2676 0.0000 (   182 PWs)   bands (ev):

     8.0177  11.6655  12.0581  14.0964  14.4327  14.5495  24.5066  31.0677

          k = 0.5353 0.2676 0.2676 (   185 PWs)   bands (ev):

    10.8404  11.1891  11.1891  14.4015  14.4015  19.9018  19.9018  21.9234

          k =-0.0000 0.0000 0.5353 (   196 PWs)   bands (ev):

     9.9027  10.9364  13.5922  13.5922  14.4389  16.4342  25.7186  25.7186

     the Fermi energy is    12.0771 ev

!    total energy              =     -55.81141959 Ry
     estimated scf accuracy    <          7.2E-10 Ry
     smearing contrib. (-TS)   =      -0.00072522 Ry
     internal energy E=F+TS    =     -55.81069436 Ry

     The total energy is F=E-TS. E is the sum of the following terms:
     one-electron contribution =       6.02566371 Ry
     hartree contribution      =       6.95845711 Ry
     xc contribution           =     -26.47473409 Ry
     ewald contribution        =     -42.32008109 Ry

     total magnetization       =     2.96 Bohr mag/cell
     absolute magnetization    =     3.05 Bohr mag/cell

     convergence has been achieved in   3 iterations

     Forces acting on atoms (cartesian axes, Ry/au):

     atom    1 type  1   force =     0.00000000    0.00000000    0.00000000

     Total force =     0.000000     Total SCF correction =     0.000000


     Computing stress (Cartesian axis) and pressure

          total   stress  (Ry/bohr**3)                   (kbar)     P=        0.66
   0.00000450   0.00000000   0.00000000            0.66        0.00        0.00
   0.00000000   0.00000450   0.00000000            0.00        0.66        0.00
   0.00000000   0.00000000   0.00000450            0.00        0.00        0.66

     Energy error            =      2.1E-08 Ry
     Gradient error          =      0.0E+00 Ry/Bohr
     Cell gradient error     =      6.6E-01 kbar

     number of scf cycles    =   7
     number of bfgs steps    =   6

     enthalpy           old  =     -55.8114195654 Ry
     enthalpy           new  =     -55.8114195864 Ry

     CASE: enthalpy          _new < enthalpy          _old

     new trust radius        =       0.0001739834 bohr
     new conv_thr            =       0.0000000010 Ry

     new unit-cell volume =     83.37279 a.u.^3 (    12.35457 Ang^3 )
     density =      7.50595 g/cm^3

CELL_PARAMETERS (angstrom)
  -1.456316989   1.456316989   1.456316989
   1.456316989  -1.456316989   1.456316989
   1.456316989   1.456316989  -1.456316989

ATOMIC_POSITIONS (angstrom)
Fe               0.0000000000        0.0000000000        0.0000000000


     Message from routine punch:
     Nothing written, as per user request (disk_io='none')
     NEW-OLD atomic charge density approx. for the potential
     New effective cutoffs (rho, wfc):  255.41   25.77

     Check: negative core charge=   -0.000002
     Generating pointlists ...

     total cpu time spent up to now is        3.0 secs

     Self-consistent Calculation

     iteration #  1     ecut=    30.00 Ry     beta= 0.50
     Davidson diagonalization with overlap
     ethr =  1.00E-06,  avg # of iterations =  2.0

     Threshold (ethr) on eigenvalues was too large:
     Diagonalizing with lowered threshold

     Davidson diagonalization with overlap
     ethr =  3.56E-11,  avg # of iterations =  2.5

     total cpu time spent up to now is        3.1 secs

     total energy              =     -55.81141962 Ry
     estimated scf accuracy    <          2.6E-09 Ry

     total magnetization       =     2.96 Bohr mag/cell
     absolute magnetization    =     3.05 Bohr mag/cell

     iteration #  2     ecut=    30.00 Ry     beta= 0.50
     Davidson diagonalization with overlap
     ethr =  3.24E-11,  avg # of iterations =  1.5

     Magnetic moment per site  (integrated on atomic sphere of radius R)
     atom   1 (R=0.413)  charge=  6.1200  magn=  2.9439

     total cpu time spent up to now is        3.1 secs

     End of self-consistent calculation

 ------ SPIN UP ------------


          k = 0.0000 0.0000 0.0000 (   177 PWs)   bands (ev):

     4.1073   9.5647   9.5647   9.5647  10.7772  10.7772  35.9883  35.9883

          k = 0.2676 0.2676 0.0000 (   182 PWs)   bands (ev):

     7.1216   8.8610  10.1059  10.7051  10.8761  11.2362  23.2412  30.9161

          k = 0.5352 0.2676 0.2676 (   185 PWs)   bands (ev):

     8.4014   9.0155   9.0155  10.9688  10.9688  18.3315  18.3315  20.5921

          k =-0.0000 0.0000 0.5352 (   196 PWs)   bands (ev):

     8.0993   8.3326  10.5762  10.5762  11.1273  14.6167  24.8153  24.8153

 ------ SPIN DOWN ----------


          k = 0.0000 0.0000 0.0000 (   177 PWs)   bands (ev):

     4.3957  12.5898  12.5898  12.5898  14.2751  14.2751  35.8431  35.8431

          k = 0.2676 0.2676 0.0000 (   182 PWs)   bands (ev):

     8.0141  11.6615  12.0539  14.0915  14.4277  14.5444  24.4990  31.0604

          k = 0.5352 0.2676 0.2676 (   185 PWs)   bands (ev):

    10.8367  11.1852  11.1852  14.3964  14.3964  19.8953  19.8953  21.9158

          k =-0.0000 0.0000 0.5352 (   196 PWs)   bands (ev):

     9.8991  10.9329  13.5875  13.5875  14.4338  16.4284  25.7109  25.7109

     the Fermi energy is    12.0729 ev

!    total energy              =     -55.81141962 Ry
     estimated scf accuracy    <          6.8E-10 Ry
     smearing contrib. (-TS)   =      -0.00072464 Ry
     internal energy E=F+TS    =     -55.81069497 Ry

     The total energy is F=E-TS. E is the sum of the following terms:
     one-electron contribution =       6.01989091 Ry
     hartree contribution      =       6.96000851 Ry
     xc contribution           =     -26.47454543 Ry
     ewald contribution        =     -42.31604897 Ry

     total magnetization       =     2.96 Bohr mag/cell
     absolute magnetization    =     3.05 Bohr mag/cell

     convergence has been achieved in   2 iterations

     Forces acting on atoms (cartesian axes, Ry/au):

     atom    1 type  1   force =     0.00000000    0.00000000    0.00000000

     Total force =     0.000000     Total SCF correction =     0.000000


     Computing stress (Cartesian axis) and pressure

          total   stress  (Ry/bohr**3)                   (kbar)     P=        0.13
   0.00000086  -0.00000000  -0.00000000            0.13       -0.00       -0.00
  -0.00000000   0.00000086  -0.00000000           -0.00        0.13       -0.00
  -0.00000000  -0.00000000   0.00000086           -0.00       -0.00        0.13

     Energy error            =      3.1E-08 Ry
     Gradient error          =      0.0E+00 Ry/Bohr
     Cell gradient error     =      1.3E-01 kbar

     bfgs converged in   8 scf cycles and   7 bfgs steps
     (criteria: energy <  1.0E-04 Ry, force <  1.0E-03 Ry/Bohr, cell <  5.0E-01 kbar)

     End of BFGS Geometry Optimization

     Final enthalpy           =     -55.8114196178 Ry

     File /home/bond/Work/Lab4/1A/Fe_a_2.7_ecut_30_nk_3/pwscf.bfgs deleted, as requested
Begin final coordinates
     new unit-cell volume =     83.37279 a.u.^3 (    12.35457 Ang^3 )
     density =      7.50595 g/cm^3

CELL_PARAMETERS (angstrom)
  -1.456316989   1.456316989   1.456316989
   1.456316989  -1.456316989   1.456316989
   1.456316989   1.456316989  -1.456316989

ATOMIC_POSITIONS (angstrom)
Fe               0.0000000000        0.0000000000        0.0000000000
End final coordinates


     Message from routine punch:
     Nothing written, as per user request (disk_io='none')

     Final scf calculation at the relaxed structure.
     The G-vectors are recalculated for the final unit cell
     Results may differ from those at the preceding step.

     Parallelization info
     --------------------
     sticks:   dense  smooth     PW     G-vecs:    dense   smooth      PW
     Min         261     102     33                 3697      932     184
     Max         262     103     34                 3698      933     185
     Sum         523     205     67                 7395     1865     369

     Using Slab Decomposition



     bravais-lattice index     =            0
     lattice parameter (alat)  =       4.4187  a.u.
     unit-cell volume          =      83.3728 (a.u.)^3
     number of atoms/cell      =            1
     number of atomic types    =            1
     number of electrons       =         8.00
     number of Kohn-Sham states=            8
     kinetic-energy cutoff     =      30.0000  Ry
     charge density cutoff     =     300.0000  Ry
     scf convergence threshold =      1.0E-09
     mixing beta               =       0.5000
     number of iterations used =            8  plain     mixing
     press convergence thresh. =      5.0E-01
     Exchange-correlation=  SLA  PW   PBE  PBE
                           (   1   4   3   4   0   0   0)

     celldm(1)=   4.418687  celldm(2)=   0.000000  celldm(3)=   0.000000
     celldm(4)=   0.000000  celldm(5)=   0.000000  celldm(6)=   0.000000

     crystal axes: (cart. coord. in units of alat)
               a(1) = (  -0.622819   0.622819   0.622819 )  
               a(2) = (   0.622819  -0.622819   0.622819 )  
               a(3) = (   0.622819   0.622819  -0.622819 )  

     reciprocal axes: (cart. coord. in units 2 pi/alat)
               b(1) = (  0.000000  0.802802  0.802802 )  
               b(2) = (  0.802802  0.000000  0.802802 )  
               b(3) = (  0.802802  0.802802  0.000000 )  


     PseudoPot. # 1 for Fe read from file:
     /home/bond/Software/QE/qe-7.4.1/pseudo/Fe.pbe-nd-rrkjus.UPF
     MD5 check sum: 398036227a04b607635f6f5e8dfd8242
     Pseudo is Ultrasoft + core correction, Zval =  8.0
     Generated by new atomic code, or converted to UPF format
     Using radial grid of  957 points,  6 beta functions with: 
                l(1) =   0
                l(2) =   0
                l(3) =   1
                l(4) =   1
                l(5) =   2
                l(6) =   2
     Q(r) pseudized with 0 coefficients 


     atomic species   valence    mass     pseudopotential
     Fe                8.00    55.84500     Fe( 1.00)

     Starting magnetic structure 
     atomic species   magnetization
     Fe              0.481

     48 Sym. Ops., with inversion, found



   Cartesian axes

     site n.     atom                  positions (alat units)
         1        Fe     tau(   1) = (   0.0000000   0.0000000   0.0000000  )

     number of k points=     4  Methfessel-Paxton smearing, width (Ry)=  0.0200
                       cart. coord. in units 2pi/alat
        k(    1) = (   0.0000000   0.0000000   0.0000000), wk =   0.0370370
        k(    2) = (   0.2676007   0.2676007   0.0000000), wk =   0.4444444
        k(    3) = (   0.5352014   0.2676007   0.2676007), wk =   0.2962963
        k(    4) = (  -0.0000000   0.0000000   0.5352014), wk =   0.2222222

     Dense  grid:     7395 G-vectors     FFT dimensions: (  27,  27,  27)

     Smooth grid:     1865 G-vectors     FFT dimensions: (  18,  18,  18)

     Estimated max dynamical RAM per process >      18.12 MB

     Estimated total dynamical RAM >      36.24 MB

     Check: negative core charge=   -0.000008
     Generating pointlists ...

     Initial potential from superposition of free atoms

     starting charge       7.9994, renormalised to       8.0000
     Starting wfcs are    6 randomized atomic wfcs +    2 random wfcs

     total cpu time spent up to now is        3.4 secs

     Self-consistent Calculation

     iteration #  1     ecut=    30.00 Ry     beta= 0.50
     Davidson diagonalization with overlap
     ethr =  1.00E-06,  avg # of iterations = 17.2

     total cpu time spent up to now is        3.6 secs

     total energy              =     -55.70658204 Ry
     estimated scf accuracy    <       0.29007112 Ry

     total magnetization       =     3.01 Bohr mag/cell
     absolute magnetization    =     3.01 Bohr mag/cell

     iteration #  2     ecut=    30.00 Ry     beta= 0.50
     Davidson diagonalization with overlap
     ethr =  3.63E-03,  avg # of iterations =  2.0

     total cpu time spent up to now is        3.6 secs

     total energy              =     -55.79801349 Ry
     estimated scf accuracy    <       0.04062925 Ry

     total magnetization       =     2.96 Bohr mag/cell
     absolute magnetization    =     2.97 Bohr mag/cell

     iteration #  3     ecut=    30.00 Ry     beta= 0.50
     Davidson diagonalization with overlap
     ethr =  5.08E-04,  avg # of iterations =  1.4

     total cpu time spent up to now is        3.7 secs

     total energy              =     -55.81061047 Ry
     estimated scf accuracy    <       0.00158942 Ry

     total magnetization       =     2.96 Bohr mag/cell
     absolute magnetization    =     2.99 Bohr mag/cell

     iteration #  4     ecut=    30.00 Ry     beta= 0.50
     Davidson diagonalization with overlap
     ethr =  1.99E-05,  avg # of iterations =  2.4

     total cpu time spent up to now is        3.7 secs

     total energy              =     -55.81214116 Ry
     estimated scf accuracy    <       0.00023710 Ry

     total magnetization       =     2.96 Bohr mag/cell
     absolute magnetization    =     3.04 Bohr mag/cell

     iteration #  5     ecut=    30.00 Ry     beta= 0.50
     Davidson diagonalization with overlap
     ethr =  2.96E-06,  avg # of iterations =  2.0

     total cpu time spent up to now is        3.8 secs

     total energy              =     -55.81225446 Ry
     estimated scf accuracy    <       0.00005441 Ry

     total magnetization       =     2.96 Bohr mag/cell
     absolute magnetization    =     3.05 Bohr mag/cell

     iteration #  6     ecut=    30.00 Ry     beta= 0.50
     Davidson diagonalization with overlap
     ethr =  6.80E-07,  avg # of iterations =  1.8

     total cpu time spent up to now is        3.8 secs

     total energy              =     -55.81226931 Ry
     estimated scf accuracy    <       0.00000152 Ry

     total magnetization       =     2.96 Bohr mag/cell
     absolute magnetization    =     3.05 Bohr mag/cell

     iteration #  7     ecut=    30.00 Ry     beta= 0.50
     Davidson diagonalization with overlap
     ethr =  1.89E-08,  avg # of iterations =  4.4

     total cpu time spent up to now is        3.9 secs

     total energy              =     -55.81227219 Ry
     estimated scf accuracy    <       0.00000002 Ry

     total magnetization       =     2.96 Bohr mag/cell
     absolute magnetization    =     3.05 Bohr mag/cell

     iteration #  8     ecut=    30.00 Ry     beta= 0.50
     Davidson diagonalization with overlap
     ethr =  1.96E-10,  avg # of iterations =  6.4

     total cpu time spent up to now is        4.0 secs

     total energy              =     -55.81227237 Ry
     estimated scf accuracy    <       0.00000003 Ry

     total magnetization       =     2.96 Bohr mag/cell
     absolute magnetization    =     3.05 Bohr mag/cell

     iteration #  9     ecut=    30.00 Ry     beta= 0.50
     Davidson diagonalization with overlap
     ethr =  1.96E-10,  avg # of iterations =  2.1

     Magnetic moment per site  (integrated on atomic sphere of radius R)
     atom   1 (R=0.413)  charge=  6.1204  magn=  2.9438

     total cpu time spent up to now is        4.0 secs

     End of self-consistent calculation

 ------ SPIN UP ------------


          k = 0.0000 0.0000 0.0000 (   225 PWs)   bands (ev):

     4.1095   9.5610   9.5610   9.5610  10.7741  10.7741  35.9884  35.9884

          k = 0.2676 0.2676 0.0000 (   241 PWs)   bands (ev):

     7.1216   8.8570  10.1050  10.7013  10.8717  11.2321  23.2408  30.9173

          k = 0.5352 0.2676 0.2676 (   228 PWs)   bands (ev):

     8.3988   9.0135   9.0135  10.9652  10.9652  18.3313  18.3313  20.5928

          k =-0.0000 0.0000 0.5352 (   233 PWs)   bands (ev):

     8.0982   8.3302  10.5725  10.5725  11.1235  14.6171  24.8164  24.8164

 ------ SPIN DOWN ----------


          k = 0.0000 0.0000 0.0000 (   225 PWs)   bands (ev):

     4.3989  12.5865  12.5865  12.5865  14.2720  14.2720  35.8439  35.8439

          k = 0.2676 0.2676 0.0000 (   241 PWs)   bands (ev):

     8.0162  11.6578  12.0523  14.0877  14.4226  14.5405  24.4990  31.0623

          k = 0.5352 0.2676 0.2676 (   228 PWs)   bands (ev):

    10.8351  11.1846  11.1846  14.3927  14.3927  19.8945  19.8945  21.9176

          k =-0.0000 0.0000 0.5352 (   233 PWs)   bands (ev):

     9.8995  10.9308  13.5846  13.5846  14.4303  16.4282  25.7129  25.7129

     the Fermi energy is    12.0715 ev

!    total energy              =     -55.81227241 Ry
     estimated scf accuracy    <          3.5E-10 Ry
     smearing contrib. (-TS)   =      -0.00072872 Ry
     internal energy E=F+TS    =     -55.81154369 Ry

     The total energy is F=E-TS. E is the sum of the following terms:
     one-electron contribution =       6.01912874 Ry
     hartree contribution      =       6.95894161 Ry
     xc contribution           =     -26.47356506 Ry
     ewald contribution        =     -42.31604897 Ry

     total magnetization       =     2.96 Bohr mag/cell
     absolute magnetization    =     3.05 Bohr mag/cell

     convergence has been achieved in   9 iterations

     Forces acting on atoms (cartesian axes, Ry/au):

     atom    1 type  1   force =     0.00000000    0.00000000    0.00000000

     Total force =     0.000000     Total SCF correction =     0.000000


     Computing stress (Cartesian axis) and pressure

          total   stress  (Ry/bohr**3)                   (kbar)     P=       -1.63
  -0.00001105  -0.00000000  -0.00000000           -1.63       -0.00       -0.00
  -0.00000000  -0.00001105  -0.00000000           -0.00       -1.63       -0.00
  -0.00000000  -0.00000000  -0.00001105           -0.00       -0.00       -1.63

     Message from routine punch:
     Nothing written, as per user request (disk_io='none')

     init_run     :      0.53s CPU      0.54s WALL (       2 calls)
     electrons    :      2.18s CPU      2.32s WALL (       9 calls)
     update_pot   :      0.04s CPU      0.05s WALL (       7 calls)
     forces       :      0.16s CPU      0.17s WALL (       9 calls)
     stress       :      0.92s CPU      0.92s WALL (       9 calls)

     Called by init_run:
     wfcinit      :      0.01s CPU      0.01s WALL (       2 calls)
     potinit      :      0.14s CPU      0.14s WALL (       2 calls)
     hinit0       :      0.34s CPU      0.34s WALL (       2 calls)

     Called by electrons:
     c_bands      :      0.56s CPU      0.63s WALL (      52 calls)
     sum_band     :      0.88s CPU      0.91s WALL (      52 calls)
     v_of_rho     :      0.35s CPU      0.38s WALL (      57 calls)
     newd         :      0.48s CPU      0.50s WALL (      57 calls)
     mix_rho      :      0.02s CPU      0.02s WALL (      52 calls)

     Called by c_bands:
     init_us_2    :      0.02s CPU      0.02s WALL (     992 calls)
     cegterg      :      0.51s CPU      0.58s WALL (     416 calls)

     Called by *egterg:
     cdiaghg      :      0.08s CPU      0.09s WALL (    1505 calls)
     h_psi        :      0.36s CPU      0.41s WALL (    1609 calls)
     s_psi        :      0.01s CPU      0.01s WALL (    1609 calls)
     g_psi        :      0.00s CPU      0.00s WALL (    1177 calls)

     Called by h_psi:
     h_psi:calbec :      0.02s CPU      0.02s WALL (    1609 calls)
     vloc_psi     :      0.32s CPU      0.37s WALL (    1609 calls)
     add_vuspsi   :      0.01s CPU      0.01s WALL (    1609 calls)

     General routines
     calbec       :      0.04s CPU      0.04s WALL (    3249 calls)
     fft          :      0.25s CPU      0.26s WALL (    1782 calls)
     ffts         :      0.11s CPU      0.11s WALL (     218 calls)
     fftw         :      0.31s CPU      0.35s WALL (   22072 calls)
     interpolate  :      0.12s CPU      0.12s WALL (     114 calls)

     Parallel routines

     PWSCF        :      3.99s CPU      4.17s WALL


   This run was terminated on:  16:57:54  20Oct2025            

=------------------------------------------------------------------------------=
   JOB DONE.
=------------------------------------------------------------------------------=
