Header of the LAMMPS data file 

9 atoms 
1 atom types

0.0 8.745191935923772  xlo xhi
0.0 8.745191935923772  ylo yhi
0.0 14.0  zlo zhi

Masses 

1  26.9815385

Atoms # atomic 

1 1 0.00000 0.00000 7.00000 
2 1 2.91506 0.00000 7.00000 
3 1 5.83013 0.00000 7.00000 
4 1 0.00000 2.91506 7.00000 
5 1 2.91506 2.91506 7.00000 
6 1 5.83013 2.91506 7.00000 
7 1 0.00000 5.83013 7.00000 
8 1 2.91506 5.83013 7.00000 
9 1 5.83013 5.83013 7.00000 
