
     Program PWSCF v.7.4.1 starts on  8Oct2025 at  0:23:24 

     This program is part of the open-source Quantum ESPRESSO suite
     for quantum simulation of materials; please cite
         "P. Giannozzi et al., J. Phys.:Condens. Matter 21 395502 (2009);
         "P. Giannozzi et al., J. Phys.:Condens. Matter 29 465901 (2017);
         "P. Giannozzi et al., J. Chem. Phys. 152 154105 (2020);
          URL http://www.quantum-espresso.org", 
     in publications or presentations arising from this work. More details at
     http://www.quantum-espresso.org/quote

     Parallel version (MPI), running on     1 processors

     MPI processes distributed on     1 nodes
     150 MiB available memory on the printing compute node when the environment starts

     Waiting for input...
     Reading input from standard input
Warning: card &CELL ignored
Warning: card / ignored

     Current dimensions of program PWSCF are:
     Max number of different atomic species (ntypx) = 10
     Max number of k-points (npk) =  40000
     Max angular momentum in pseudopotentials (lmaxx) =  4
     Message from routine setup:
     using ibrav=0 with symmetry is DISCOURAGED, use correct ibrav instead

     Subspace diagonalization in iterative solution of the eigenvalue problem:
     a serial algorithm will be used


     G-vector sticks info
     --------------------
     sticks:   dense  smooth     PW     G-vecs:    dense   smooth      PW
     Sum         385     385    121                 5065     5065     941

     Using Slab Decomposition



     bravais-lattice index     =            0
     lattice parameter (alat)  =       7.5604  a.u.
     unit-cell volume          =     305.5804 (a.u.)^3
     number of atoms/cell      =            2
     number of atomic types    =            1
     number of electrons       =        28.00
     number of Kohn-Sham states=           14
     kinetic-energy cutoff     =      25.0000  Ry
     charge density cutoff     =     100.0000  Ry
     scf convergence threshold =      1.0E-07
     mixing beta               =       0.5000
     number of iterations used =            8  plain     mixing
     Exchange-correlation=  SLA  PZ   NOGX NOGC
                           (   1   1   0   0   0   0   0)

     celldm(1)=   7.560435  celldm(2)=   0.000000  celldm(3)=   0.000000
     celldm(4)=   0.000000  celldm(5)=   0.000000  celldm(6)=   0.000000

     crystal axes: (cart. coord. in units of alat)
               a(1) = (   0.000000   0.707107   0.707107 )  
               a(2) = (   0.707107   0.000000   0.707107 )  
               a(3) = (   0.707107   0.707107   0.000000 )  

     reciprocal axes: (cart. coord. in units 2 pi/alat)
               b(1) = ( -0.707107  0.707107  0.707107 )  
               b(2) = (  0.707107 -0.707107  0.707107 )  
               b(3) = (  0.707107  0.707107 -0.707107 )  


     PseudoPot. # 1 for Ge read from file:
     /home/bond/Software/QE/qe-7.4.1/pseudo/ge_lda_v1.4.uspp.F.UPF
     MD5 check sum: bf9d52b59cc8a669818bb2b52e0c2ba0
     Pseudo is Ultrasoft + core correction, Zval = 14.0
     Generated by new atomic code, or converted to UPF format
     Using radial grid of  873 points,  6 beta functions with: 
                l(1) =   0
                l(2) =   0
                l(3) =   1
                l(4) =   1
                l(5) =   2
                l(6) =   2
     Q(r) pseudized with  8 coefficients,  rinner =    1.400   1.400   1.400
                                                       1.400   1.400

     atomic species   valence    mass     pseudopotential
     Ge               14.00    72.63000     Ge( 1.00)

      4 Sym. Ops. (no inversion) found



   Cartesian axes

     site n.     atom                  positions (alat units)
         1        Ge     tau(   1) = (   0.0000000   0.0000000   0.0707107  )
         2        Ge     tau(   2) = (   0.3535534   0.3535534   0.3535534  )

     number of k points=    18
                       cart. coord. in units 2pi/alat
        k(    1) = (   0.0000000   0.0000000   0.0000000), wk =   0.0312500
        k(    2) = (   0.1767767   0.1767767  -0.1767767), wk =   0.1250000
        k(    3) = (  -0.3535534  -0.3535534   0.3535534), wk =   0.0625000
        k(    4) = (   0.3535534   0.0000000   0.0000000), wk =   0.1250000
        k(    5) = (  -0.1767767  -0.5303301   0.5303301), wk =   0.2500000
        k(    6) = (   0.0000000  -0.3535534   0.3535534), wk =   0.2500000
        k(    7) = (  -0.7071068   0.0000000   0.0000000), wk =   0.0625000
        k(    8) = (  -0.7071068   0.3535534   0.0000000), wk =   0.1250000
        k(    9) = (   0.1767767  -0.1767767  -0.1767767), wk =   0.1250000
        k(   10) = (  -0.3535534   0.3535534   0.3535534), wk =   0.0625000
        k(   11) = (   0.0000000   0.0000000   0.3535534), wk =   0.0625000
        k(   12) = (  -0.5303301   0.1767767   0.5303301), wk =   0.2500000
        k(   13) = (   0.5303301   0.5303301  -0.1767767), wk =   0.1250000
        k(   14) = (  -0.5303301   0.5303301   0.1767767), wk =   0.1250000
        k(   15) = (   0.3535534   0.3535534   0.0000000), wk =   0.0625000
        k(   16) = (  -0.3535534   0.3535534   0.0000000), wk =   0.0625000
        k(   17) = (   0.0000000   0.0000000  -0.7071068), wk =   0.0312500
        k(   18) = (   0.7071068   0.0000000   0.3535534), wk =   0.0625000

     Dense  grid:     5065 G-vectors     FFT dimensions: (  25,  25,  25)

     Estimated max dynamical RAM per process >      22.49 MB

     Check: negative core charge=   -0.000695

     Initial potential from superposition of free atoms

     starting charge      27.9986, renormalised to      28.0000
     Starting wfcs are   18 randomized atomic wfcs

     total cpu time spent up to now is        0.7 secs

     Self-consistent Calculation

     iteration #  1     ecut=    25.00 Ry     beta= 0.50
     Davidson diagonalization with overlap
     ethr =  1.00E-02,  avg # of iterations =  1.8

     Threshold (ethr) on eigenvalues was too large:
     Diagonalizing with lowered threshold

     Davidson diagonalization with overlap
     ethr =  1.82E-04,  avg # of iterations =  1.8

     total cpu time spent up to now is        1.3 secs

     total energy              =    -425.86372018 Ry
     estimated scf accuracy    <       0.05501533 Ry

     iteration #  2     ecut=    25.00 Ry     beta= 0.50
     Davidson diagonalization with overlap
     ethr =  1.96E-04,  avg # of iterations =  1.0

     total cpu time spent up to now is        1.5 secs

     total energy              =    -425.86414096 Ry
     estimated scf accuracy    <       0.00752224 Ry

     iteration #  3     ecut=    25.00 Ry     beta= 0.50
     Davidson diagonalization with overlap
     ethr =  2.69E-05,  avg # of iterations =  2.1

     total cpu time spent up to now is        1.8 secs

     total energy              =    -425.86483148 Ry
     estimated scf accuracy    <       0.00013657 Ry

     iteration #  4     ecut=    25.00 Ry     beta= 0.50
     Davidson diagonalization with overlap
     ethr =  4.88E-07,  avg # of iterations =  3.7

     total cpu time spent up to now is        2.1 secs

     total energy              =    -425.86487522 Ry
     estimated scf accuracy    <       0.00001367 Ry

     iteration #  5     ecut=    25.00 Ry     beta= 0.50
     Davidson diagonalization with overlap
     ethr =  4.88E-08,  avg # of iterations =  2.7

     total cpu time spent up to now is        2.4 secs

     total energy              =    -425.86487781 Ry
     estimated scf accuracy    <       0.00000086 Ry

     iteration #  6     ecut=    25.00 Ry     beta= 0.50
     Davidson diagonalization with overlap
     ethr =  3.05E-09,  avg # of iterations =  3.7

     total cpu time spent up to now is        2.8 secs

     total energy              =    -425.86487796 Ry
     estimated scf accuracy    <       0.00000016 Ry

     iteration #  7     ecut=    25.00 Ry     beta= 0.50
     Davidson diagonalization with overlap
     ethr =  5.75E-10,  avg # of iterations =  3.8

     total cpu time spent up to now is        3.1 secs

     End of self-consistent calculation

          k = 0.0000 0.0000 0.0000 (   645 PWs)   bands (ev):

   -17.2631 -17.2499 -17.2363 -17.1950 -17.0942 -17.0075 -17.0006 -16.9690
   -16.9329 -16.9016  -4.7096   6.8835   7.9716   8.4062

          k = 0.1768 0.1768-0.1768 (   637 PWs)   bands (ev):

   -17.3203 -17.2940 -17.1880 -17.1093 -17.1019 -17.0132 -17.0026 -16.9369
   -16.8895 -16.8622  -3.9277   2.8148   6.9654   8.0241

          k =-0.3536-0.3536 0.3536 (   628 PWs)   bands (ev):

   -17.3579 -17.3441 -17.1616 -17.0746 -17.0581 -16.9662 -16.9566 -16.9505
   -16.8364 -16.8326  -2.2952  -0.2953   6.3518   7.4882

          k = 0.3536 0.0000 0.0000 (   649 PWs)   bands (ev):

   -17.3426 -17.3248 -17.1967 -17.1279 -17.0632 -17.0559 -17.0463 -16.9451
   -16.9198 -16.8869  -3.7168   3.0771   6.2373   6.4059

          k =-0.1768-0.5303 0.5303 (   649 PWs)   bands (ev):

   -17.3695 -17.3600 -17.1763 -17.1260 -17.0937 -17.0378 -17.0112 -16.9691
   -16.8775 -16.8592  -2.0109   0.0286   4.8231   5.9085

          k = 0.0000-0.3536 0.3536 (   636 PWs)   bands (ev):

   -17.3291 -17.2917 -17.1792 -17.1115 -17.0817 -17.0070 -16.9776 -16.9435
   -16.8938 -16.8570  -2.8893   1.5531   4.2164   6.8702

          k =-0.7071 0.0000 0.0000 (   636 PWs)   bands (ev):

   -17.3409 -17.3408 -17.1011 -17.1010 -17.0597 -17.0596 -16.9821 -16.9820
   -16.8540 -16.8540  -0.9094  -0.9094   5.2540   5.2540

          k =-0.7071 0.3536 0.0000 (   648 PWs)   bands (ev):

   -17.3607 -17.2913 -17.1507 -17.1397 -17.0741 -17.0642 -16.9949 -16.9888
   -16.9268 -16.8600  -1.4367  -0.0002   3.8863   4.6401

          k = 0.1768-0.1768-0.1768 (   637 PWs)   bands (ev):

   -17.2878 -17.2530 -17.1824 -17.1420 -17.0742 -17.0163 -16.9812 -16.9418
   -16.9243 -16.9222  -4.0411   3.9141   6.3329   7.9774

          k =-0.3536 0.3536 0.3536 (   628 PWs)   bands (ev):

   -17.2632 -17.2422 -17.1328 -17.1192 -17.0554 -17.0462 -16.9592 -16.9300
   -16.9034 -16.9024  -2.9765   1.3246   5.9243   7.5573

          k = 0.0000 0.0000 0.3536 (   649 PWs)   bands (ev):

   -17.2934 -17.2453 -17.2384 -17.1524 -17.1476 -17.0166 -16.9805 -16.9690
   -16.9627 -16.9070  -3.7419   3.5664   5.4980   6.5218

          k =-0.5303 0.1768 0.5303 (   649 PWs)   bands (ev):

   -17.3551 -17.3223 -17.1722 -17.1018 -17.0930 -17.0612 -17.0197 -16.9941
   -16.9088 -16.8591  -2.4896   1.2747   3.9711   6.0193

          k = 0.5303 0.5303-0.1768 (   649 PWs)   bands (ev):

   -17.3759 -17.2806 -17.1824 -17.1712 -17.1139 -17.0328 -16.9867 -16.9757
   -16.8878 -16.8766  -2.1649   0.4607   4.0930   6.1836

          k =-0.5303 0.5303 0.1768 (   649 PWs)   bands (ev):

   -17.3229 -17.2167 -17.1781 -17.1710 -17.1362 -17.0385 -17.0081 -16.9830
   -16.9204 -16.9189  -2.5406   1.3735   4.7787   5.1746

          k = 0.3536 0.3536 0.0000 (   636 PWs)   bands (ev):

   -17.3658 -17.3337 -17.1756 -17.0842 -17.0548 -17.0065 -17.0046 -16.9290
   -16.8748 -16.8358  -2.5955   0.6285   4.4112   7.3105

          k =-0.3536 0.3536 0.0000 (   636 PWs)   bands (ev):

   -17.3054 -17.2552 -17.1304 -17.1065 -17.0768 -17.0396 -17.0122 -16.9434
   -16.9085 -16.9012  -3.1069   2.5776   4.3022   5.8683

          k = 0.0000 0.0000-0.7071 (   636 PWs)   bands (ev):

   -17.3427 -17.1718 -17.1655 -17.1458 -17.1147 -17.0037 -16.9907 -16.9796
   -16.8880 -16.8808  -1.7170   0.2673   4.6134   5.4158

          k = 0.7071 0.0000 0.3536 (   648 PWs)   bands (ev):

   -17.3614 -17.3614 -17.1489 -17.1487 -17.0504 -17.0502 -17.0048 -17.0047
   -16.8584 -16.8583  -0.8228  -0.8228   4.3893   4.3894

     highest occupied level (ev):     8.4062

!    total energy              =    -425.86487801 Ry
     estimated scf accuracy    <       0.00000003 Ry

     The total energy is the sum of the following terms:
     one-electron contribution =    -279.53354171 Ry
     hartree contribution      =     164.75394035 Ry
     xc contribution           =    -114.33605856 Ry
     ewald contribution        =    -196.74921808 Ry

     convergence has been achieved in   7 iterations

     Forces acting on atoms (cartesian axes, Ry/au):

     atom    1 type  1   force =     0.00000000   -0.00000000   -0.11681780
     atom    2 type  1   force =    -0.00000000    0.00000000    0.11681780

     Total force =     0.165205     Total SCF correction =     0.001494


     Computing stress (Cartesian axis) and pressure

          total   stress  (Ry/bohr**3)                   (kbar)     P=     -737.56
  -0.00495725   0.00049785   0.00000000         -729.24       73.24        0.00
   0.00049785  -0.00495725   0.00000000           73.24     -729.24        0.00
   0.00000000   0.00000000  -0.00512705            0.00        0.00     -754.22

     Message from routine punch:
     Nothing written, as per user request (disk_io='none')

     init_run     :      0.46s CPU      0.50s WALL (       1 calls)
     electrons    :      2.29s CPU      2.36s WALL (       1 calls)
     forces       :      0.04s CPU      0.04s WALL (       1 calls)
     stress       :      0.29s CPU      0.29s WALL (       1 calls)

     Called by init_run:
     wfcinit      :      0.17s CPU      0.17s WALL (       1 calls)
     potinit      :      0.01s CPU      0.01s WALL (       1 calls)
     hinit0       :      0.26s CPU      0.28s WALL (       1 calls)

     Called by electrons:
     c_bands      :      1.75s CPU      1.80s WALL (       8 calls)
     sum_band     :      0.41s CPU      0.43s WALL (       8 calls)
     v_of_rho     :      0.01s CPU      0.01s WALL (       8 calls)
     newd         :      0.13s CPU      0.14s WALL (       8 calls)
     mix_rho      :      0.00s CPU      0.00s WALL (       8 calls)

     Called by c_bands:
     init_us_2    :      0.08s CPU      0.08s WALL (     342 calls)
     cegterg      :      1.56s CPU      1.60s WALL (     144 calls)

     Called by *egterg:
     cdiaghg      :      0.13s CPU      0.13s WALL (     498 calls)
     h_psi        :      1.34s CPU      1.38s WALL (     534 calls)
     s_psi        :      0.04s CPU      0.04s WALL (     534 calls)
     g_psi        :      0.01s CPU      0.01s WALL (     372 calls)

     Called by h_psi:
     h_psi:calbec :      0.06s CPU      0.06s WALL (     534 calls)
     vloc_psi     :      1.21s CPU      1.25s WALL (     534 calls)
     add_vuspsi   :      0.05s CPU      0.05s WALL (     534 calls)

     General routines
     calbec       :      0.11s CPU      0.11s WALL (     984 calls)
     fft          :      0.06s CPU      0.07s WALL (      41 calls)
     ffts         :      0.00s CPU      0.00s WALL (       8 calls)
     fftw         :      1.17s CPU      1.20s WALL (   12806 calls)

     Parallel routines

     PWSCF        :      3.29s CPU      3.43s WALL


   This run was terminated on:   0:23:27   8Oct2025            

=------------------------------------------------------------------------------=
   JOB DONE.
=------------------------------------------------------------------------------=
