
     Program PWSCF v.7.4.1 starts on 21Oct2025 at 18: 4: 1 

     This program is part of the open-source Quantum ESPRESSO suite
     for quantum simulation of materials; please cite
         "P. Giannozzi et al., J. Phys.:Condens. Matter 21 395502 (2009);
         "P. Giannozzi et al., J. Phys.:Condens. Matter 29 465901 (2017);
         "P. Giannozzi et al., J. Chem. Phys. 152 154105 (2020);
          URL http://www.quantum-espresso.org", 
     in publications or presentations arising from this work. More details at
     http://www.quantum-espresso.org/quote

     Parallel version (MPI), running on     2 processors

     MPI processes distributed on     1 nodes
     226 MiB available memory on the printing compute node when the environment starts

     Waiting for input...
     Reading input from standard input

     Current dimensions of program PWSCF are:
     Max number of different atomic species (ntypx) = 10
     Max number of k-points (npk) =  40000
     Max angular momentum in pseudopotentials (lmaxx) =  4
     Message from routine setup:
     using ibrav=0 with symmetry is DISCOURAGED, use correct ibrav instead

     R & G space division:  proc/nbgrp/npool/nimage =       2
     Subspace diagonalization in iterative solution of the eigenvalue problem:
     a serial algorithm will be used


     Parallelization info
     --------------------
     sticks:   dense  smooth     PW     G-vecs:    dense   smooth      PW
     Min         318     156     54                 5208     1847     373
     Max         319     157     55                 5209     1848     376
     Sum         637     313    109                10417     3695     749

     Using Slab Decomposition



     bravais-lattice index     =            0
     lattice parameter (alat)  =       5.3450  a.u.
     unit-cell volume          =     107.9734 (a.u.)^3
     number of atoms/cell      =            1
     number of atomic types    =            1
     number of electrons       =        11.00
     number of Kohn-Sham states=           10
     kinetic-energy cutoff     =      40.0000  Ry
     charge density cutoff     =     320.0000  Ry
     scf convergence threshold =      1.0E-07
     mixing beta               =       0.7000
     number of iterations used =            8  plain     mixing
     energy convergence thresh.=      1.0E-04
     force convergence thresh. =      1.0E-03
     press convergence thresh. =      5.0E-01
     Exchange-correlation=  SLA  PZ   NOGX NOGC
                           (   1   1   0   0   0   0   0)
     nstep                     =           50


     celldm(1)=   5.344953  celldm(2)=   0.000000  celldm(3)=   0.000000
     celldm(4)=   0.000000  celldm(5)=   0.000000  celldm(6)=   0.000000

     crystal axes: (cart. coord. in units of alat)
               a(1) = (   0.000000   0.707107   0.707107 )  
               a(2) = (   0.707107   0.000000   0.707107 )  
               a(3) = (   0.707107   0.707107   0.000000 )  

     reciprocal axes: (cart. coord. in units 2 pi/alat)
               b(1) = ( -0.707107  0.707107  0.707107 )  
               b(2) = (  0.707107 -0.707107  0.707107 )  
               b(3) = (  0.707107  0.707107 -0.707107 )  


     PseudoPot. # 1 for Au read from file:
     /home/bond/Software/QE/qe-7.4.1/pseudo/Au.pz-d-rrkjus.UPF
     MD5 check sum: 424ffd4ac9c90487cbadcd287136c95b
     Pseudo is Ultrasoft, Zval = 11.0
     Generated by new atomic code, or converted to UPF format
     Using radial grid of 1279 points,  3 beta functions with: 
                l(1) =   2
                l(2) =   2
                l(3) =   1
     Q(r) pseudized with 0 coefficients 


     atomic species   valence    mass     pseudopotential
     Au               11.00   196.96657     Au( 1.00)

     48 Sym. Ops., with inversion, found



   Cartesian axes

     site n.     atom                  positions (alat units)
         1        Au     tau(   1) = (   0.0000000   0.0000000   0.0000000  )

     number of k points=    60  Methfessel-Paxton smearing, width (Ry)=  0.0200
                       cart. coord. in units 2pi/alat
        k(    1) = (   0.0441942   0.0441942   0.0441942), wk =   0.0078125
        k(    2) = (   0.1325825   0.1325825  -0.0441942), wk =   0.0234375
        k(    3) = (   0.2209709   0.2209709  -0.1325825), wk =   0.0234375
        k(    4) = (   0.3093592   0.3093592  -0.2209709), wk =   0.0234375
        k(    5) = (  -0.3093592  -0.3093592   0.3977476), wk =   0.0234375
        k(    6) = (  -0.2209709  -0.2209709   0.3093592), wk =   0.0234375
        k(    7) = (  -0.1325825  -0.1325825   0.2209709), wk =   0.0234375
        k(    8) = (  -0.0441942  -0.0441942   0.1325825), wk =   0.0234375
        k(    9) = (   0.2209709   0.0441942   0.0441942), wk =   0.0234375
        k(   10) = (   0.3093592   0.1325825  -0.0441942), wk =   0.0468750
        k(   11) = (   0.3977476   0.2209709  -0.1325825), wk =   0.0468750
        k(   12) = (  -0.2209709  -0.3977476   0.4861359), wk =   0.0468750
        k(   13) = (  -0.1325825  -0.3093592   0.3977476), wk =   0.0468750
        k(   14) = (  -0.0441942  -0.2209709   0.3093592), wk =   0.0468750
        k(   15) = (   0.0441942  -0.1325825   0.2209709), wk =   0.0468750
        k(   16) = (   0.3977476   0.0441942   0.0441942), wk =   0.0234375
        k(   17) = (   0.4861359   0.1325825  -0.0441942), wk =   0.0468750
        k(   18) = (  -0.1325825  -0.4861359   0.5745243), wk =   0.0468750
        k(   19) = (  -0.0441942  -0.3977476   0.4861359), wk =   0.0468750
        k(   20) = (   0.0441942  -0.3093592   0.3977476), wk =   0.0468750
        k(   21) = (   0.1325825  -0.2209709   0.3093592), wk =   0.0468750
        k(   22) = (   0.5745243   0.0441942   0.0441942), wk =   0.0234375
        k(   23) = (  -0.0441942  -0.5745243   0.6629126), wk =   0.0468750
        k(   24) = (   0.0441942  -0.4861359   0.5745243), wk =   0.0468750
        k(   25) = (   0.1325825  -0.3977476   0.4861359), wk =   0.0468750
        k(   26) = (   0.2209709  -0.3093592   0.3977476), wk =   0.0468750
        k(   27) = (  -0.6629126   0.0441942   0.0441942), wk =   0.0234375
        k(   28) = (  -0.5745243   0.1325825  -0.0441942), wk =   0.0468750
        k(   29) = (  -0.4861359   0.2209709  -0.1325825), wk =   0.0468750
        k(   30) = (  -0.4861359   0.0441942   0.0441942), wk =   0.0234375
        k(   31) = (  -0.3977476   0.1325825  -0.0441942), wk =   0.0468750
        k(   32) = (  -0.3093592   0.0441942   0.0441942), wk =   0.0234375
        k(   33) = (   0.1325825   0.1325825   0.1325825), wk =   0.0078125
        k(   34) = (   0.2209709   0.2209709   0.0441942), wk =   0.0234375
        k(   35) = (   0.3093592   0.3093592  -0.0441942), wk =   0.0234375
        k(   36) = (  -0.3093592  -0.3093592   0.5745243), wk =   0.0234375
        k(   37) = (  -0.2209709  -0.2209709   0.4861359), wk =   0.0234375
        k(   38) = (  -0.1325825  -0.1325825   0.3977476), wk =   0.0234375
        k(   39) = (   0.3093592   0.1325825   0.1325825), wk =   0.0234375
        k(   40) = (   0.3977476   0.2209709   0.0441942), wk =   0.0468750
        k(   41) = (  -0.2209709  -0.3977476   0.6629126), wk =   0.0468750
        k(   42) = (  -0.1325825  -0.3093592   0.5745243), wk =   0.0468750
        k(   43) = (  -0.0441942  -0.2209709   0.4861359), wk =   0.0468750
        k(   44) = (   0.4861359   0.1325825   0.1325825), wk =   0.0234375
        k(   45) = (  -0.1325825  -0.4861359   0.7513010), wk =   0.0468750
        k(   46) = (  -0.0441942  -0.3977476   0.6629126), wk =   0.0468750
        k(   47) = (   0.0441942  -0.3093592   0.5745243), wk =   0.0468750
        k(   48) = (  -0.7513010   0.1325825   0.1325825), wk =   0.0234375
        k(   49) = (  -0.6629126   0.2209709   0.0441942), wk =   0.0468750
        k(   50) = (  -0.5745243   0.1325825   0.1325825), wk =   0.0234375
        k(   51) = (   0.2209709   0.2209709   0.2209709), wk =   0.0078125
        k(   52) = (   0.3093592   0.3093592   0.1325825), wk =   0.0234375
        k(   53) = (  -0.3093592  -0.3093592   0.7513010), wk =   0.0234375
        k(   54) = (  -0.2209709  -0.2209709   0.6629126), wk =   0.0234375
        k(   55) = (   0.3977476   0.2209709   0.2209709), wk =   0.0234375
        k(   56) = (  -0.2209709  -0.3977476   0.8396893), wk =   0.0468750
        k(   57) = (  -0.1325825  -0.3093592   0.7513010), wk =   0.0468750
        k(   58) = (  -0.8396893   0.2209709   0.2209709), wk =   0.0234375
        k(   59) = (   0.3093592   0.3093592   0.3093592), wk =   0.0078125
        k(   60) = (  -0.3093592  -0.3093592   0.9280777), wk =   0.0234375

     Dense  grid:    10417 G-vectors     FFT dimensions: (  32,  32,  32)

     Smooth grid:     3695 G-vectors     FFT dimensions: (  24,  24,  24)

     Estimated max dynamical RAM per process >      15.89 MB

     Estimated total dynamical RAM >      31.77 MB

     Initial potential from superposition of free atoms

     starting charge      10.9999, renormalised to      11.0000
     Starting wfcs are    9 randomized atomic wfcs +    1 random wfcs

     total cpu time spent up to now is        1.8 secs

     Self-consistent Calculation

     iteration #  1     ecut=    40.00 Ry     beta= 0.70
     Davidson diagonalization with overlap
     ethr =  1.00E-02,  avg # of iterations =  5.2

     Threshold (ethr) on eigenvalues was too large:
     Diagonalizing with lowered threshold

     Davidson diagonalization with overlap
     ethr =  6.86E-04,  avg # of iterations =  1.0

     total cpu time spent up to now is        3.1 secs

     total energy              =     -66.84604460 Ry
     estimated scf accuracy    <       0.07645205 Ry

     iteration #  2     ecut=    40.00 Ry     beta= 0.70
     Davidson diagonalization with overlap
     ethr =  6.95E-04,  avg # of iterations =  2.0

     total cpu time spent up to now is        3.7 secs

     total energy              =     -66.86862677 Ry
     estimated scf accuracy    <       0.02316842 Ry

     iteration #  3     ecut=    40.00 Ry     beta= 0.70
     Davidson diagonalization with overlap
     ethr =  2.11E-04,  avg # of iterations =  1.7

     total cpu time spent up to now is        4.3 secs

     total energy              =     -66.87310585 Ry
     estimated scf accuracy    <       0.00002904 Ry

     iteration #  4     ecut=    40.00 Ry     beta= 0.70
     Davidson diagonalization with overlap
     ethr =  2.64E-07,  avg # of iterations =  3.3

     total cpu time spent up to now is        5.0 secs

     total energy              =     -66.87312239 Ry
     estimated scf accuracy    <       0.00000272 Ry

     iteration #  5     ecut=    40.00 Ry     beta= 0.70
     Davidson diagonalization with overlap
     ethr =  2.47E-08,  avg # of iterations =  1.0

     total cpu time spent up to now is        5.5 secs

     End of self-consistent calculation

          k = 0.0442 0.0442 0.0442 (   474 PWs)   bands (ev):

     6.5453  11.9587  12.0613  12.0613  13.6803  13.6803  33.6882  36.1942
    37.5247  37.5247

          k = 0.1326 0.1326-0.0442 (   475 PWs)   bands (ev):

     7.2859  11.7202  12.2901  12.3103  13.4486  13.8093  32.9685  34.2809
    36.7734  38.9349

          k = 0.2210 0.2210-0.1326 (   471 PWs)   bands (ev):

     8.6533  11.8117  12.3073  12.3718  13.7280  14.3810  27.9575  33.9642
    36.1948  39.3352

          k = 0.3094 0.3094-0.2210 (   464 PWs)   bands (ev):

     9.2072  12.0020  12.1222  13.5365  14.5881  15.4598  22.9000  32.9921
    34.8486  36.6134

          k =-0.3094-0.3094 0.3977 (   462 PWs)   bands (ev):

     9.2187  11.8881  12.0547  14.2778  15.0628  16.5297  20.4992  32.7009
    34.9356  35.1476

          k =-0.2210-0.2210 0.3094 (   465 PWs)   bands (ev):

     9.1377  12.0582  12.2352  12.7726  14.6994  14.7269  24.5005  33.4198
    35.4489  36.7025

          k =-0.1326-0.1326 0.2210 (   471 PWs)   bands (ev):

     8.2105  11.6291  12.3626  12.4228  13.6133  14.0455  29.7063  34.5384
    36.4169  39.0576

          k =-0.0442-0.0442 0.1326 (   468 PWs)   bands (ev):

     6.9264  11.7802  12.2219  12.2285  13.4748  13.7840  33.9488  34.8688
    36.8880  37.5855

          k = 0.2210 0.0442 0.0442 (   468 PWs)   bands (ev):

     7.6491  11.4372  12.5263  12.5554  13.1771  13.9789  33.3186  34.7147
    35.5276  36.7457

          k = 0.3094 0.1326-0.0442 (   469 PWs)   bands (ev):

     8.8568  11.1262  12.3000  12.9531  13.5254  14.5008  30.0405  32.7356
    35.3843  36.7723

          k = 0.3977 0.2210-0.1326 (   459 PWs)   bands (ev):

     9.7332  11.6718  11.8817  12.7843  14.6564  15.8793  24.8212  32.0227
    33.1596  35.9177

          k =-0.2210-0.3977 0.4861 (   459 PWs)   bands (ev):

     9.7999  11.5159  12.5562  12.9395  14.9870  18.4930  20.5103  31.4582
    32.3721  35.1594

          k =-0.1326-0.3094 0.3977 (   456 PWs)   bands (ev):

     9.8455  11.6607  12.3501  12.6786  14.4594  16.8155  23.3209  30.7713
    33.5785  36.2463

          k =-0.0442-0.2210 0.3094 (   466 PWs)   bands (ev):

     9.3224  11.3040  12.1131  12.8953  13.4372  15.1352  28.2323  31.3100
    35.4252  38.1966

          k = 0.0442-0.1326 0.2210 (   470 PWs)   bands (ev):

     7.9661  11.4775  12.4175  12.5549  13.2964  14.0847  31.4953  33.8596
    36.3926  38.0831

          k = 0.3977 0.0442 0.0442 (   462 PWs)   bands (ev):

     9.4185  10.5859  12.6871  13.5921  14.0006  14.5380  30.4045  31.7815
    32.7900  34.8238

          k = 0.4861 0.1326-0.0442 (   461 PWs)   bands (ev):

     9.9313  10.4234  12.6553  14.0098  14.7342  16.0133  26.8304  29.4762
    30.4105  36.0208

          k =-0.1326-0.4861 0.5745 (   460 PWs)   bands (ev):

    10.1639  10.9076  12.4017  13.6372  15.0766  19.2410  22.3392  27.7004
    30.2096  36.0003

          k =-0.0442-0.3977 0.4861 (   458 PWs)   bands (ev):

    10.5796  11.2955  11.9254  13.3571  14.5229  19.0279  23.4118  26.0611
    31.9587  36.1262

          k = 0.0442-0.3094 0.3977 (   464 PWs)   bands (ev):

    10.3771  11.4532  11.6625  13.0926  13.9363  16.8495  25.3788  28.4380
    33.8161  37.1058

          k = 0.1326-0.2210 0.3094 (   462 PWs)   bands (ev):

     9.2049  11.8505  12.1156  12.4890  14.0590  14.9815  26.3367  33.1546
    34.8650  37.4852

          k = 0.5745 0.0442 0.0442 (   456 PWs)   bands (ev):

     9.5698   9.9406  14.4528  14.6629  15.1301  16.4206  25.7183  28.1956
    28.6936  34.8717

          k =-0.0442-0.5745 0.6629 (   459 PWs)   bands (ev):

     9.6887  10.0303  13.9871  14.6165  15.3311  19.2373  23.0781  26.5808
    28.0231  36.1927

          k = 0.0442-0.4861 0.5745 (   460 PWs)   bands (ev):

    10.1321  10.7602  12.7218  13.9181  15.0301  21.0038  21.8750  25.3328
    29.7537  36.2703

          k = 0.1326-0.3977 0.4861 (   460 PWs)   bands (ev):

    10.2454  11.2925  12.4177  12.9742  14.8001  19.3716  21.0368  28.7939
    32.0933  35.6407

          k = 0.2210-0.3094 0.3977 (   459 PWs)   bands (ev):

     9.4333  11.7908  12.2531  13.4015  14.9052  16.7094  21.5506  32.6790
    33.6386  35.4561

          k =-0.6629 0.0442 0.0442 (   462 PWs)   bands (ev):

     9.4475   9.7973  14.8955  14.9853  15.3548  18.0552  23.4350  27.3509
    27.9461  35.0071

          k =-0.5745 0.1326-0.0442 (   461 PWs)   bands (ev):

     9.8150  10.1667  13.4171  14.4683  15.0995  17.5317  24.9776  27.6844
    28.7610  36.0830

          k =-0.4861 0.2210-0.1326 (   459 PWs)   bands (ev):

    10.0751  11.2305  12.0442  13.2024  15.0052  17.3489  23.4435  30.3225
    31.1740  35.7067

          k =-0.4861 0.0442 0.0442 (   461 PWs)   bands (ev):

     9.6803  10.2132  13.4839  14.1850  14.8394  14.9728  28.3534  29.9513
    30.0401  34.7317

          k =-0.3977 0.1326-0.0442 (   458 PWs)   bands (ev):

     9.6631  10.7567  12.1999  13.4521  14.1451  15.0600  28.5000  31.1633
    32.9770  36.2313

          k =-0.3094 0.0442 0.0442 (   470 PWs)   bands (ev):

     8.5924  11.0142  12.5911  13.0231  13.3200  14.2408  32.0196  33.7011
    34.8523  35.9350

          k = 0.1326 0.1326 0.1326 (   471 PWs)   bands (ev):

     7.6083  11.7410  12.3146  12.3146  13.6761  13.6761  31.3274  34.5947
    38.0820  38.0820

          k = 0.2210 0.2210 0.0442 (   469 PWs)   bands (ev):

     8.5576  11.4548  12.3383  12.6577  13.2346  14.5110  29.7888  32.6643
    36.6761  38.1631

          k = 0.3094 0.3094-0.0442 (   461 PWs)   bands (ev):

     9.8682  11.4407  11.9944  12.8422  13.5224  15.9222  26.6831  29.8535
    35.2508  37.8147

          k =-0.3094-0.3094 0.5745 (   455 PWs)   bands (ev):

    10.0108  11.5226  12.6418  12.6711  14.5459  17.9132  22.0758  29.6648
    34.3038  34.6409

          k =-0.2210-0.2210 0.4861 (   456 PWs)   bands (ev):

     9.8875  11.4626  12.4768  12.7674  15.1163  17.8856  21.7026  30.9140
    32.7713  34.4000

          k =-0.1326-0.1326 0.3977 (   460 PWs)   bands (ev):

     9.6738  11.1155  12.0507  13.0117  14.8438  15.0428  26.5950  32.6125
    33.0098  35.0667

          k = 0.3094 0.1326 0.1326 (   464 PWs)   bands (ev):

     8.9819  11.3970  12.2043  12.6543  14.0509  14.4631  28.1473  34.3435
    34.4680  36.5800

          k = 0.3977 0.2210 0.0442 (   462 PWs)   bands (ev):

    10.0518  11.0925  11.7724  13.3080  13.9861  15.9353  26.7717  29.8559
    33.2598  37.7104

          k =-0.2210-0.3977 0.6629 (   463 PWs)   bands (ev):

    10.7804  11.1853  11.4825  13.4805  14.4761  18.0770  24.2999  27.1590
    31.2989  37.8316

          k =-0.1326-0.3094 0.5745 (   462 PWs)   bands (ev):

    10.5459  11.0578  12.0365  13.3724  14.9404  20.1984  21.2714  27.8818
    29.8425  37.2491

          k =-0.0442-0.2210 0.4861 (   460 PWs)   bands (ev):

    10.3566  10.8416  11.8529  13.7970  14.5606  17.0851  25.4013  28.4164
    30.7564  37.6193

          k = 0.4861 0.1326 0.1326 (   459 PWs)   bands (ev):

     9.9526  10.7732  12.3998  13.4643  15.1095  16.4725  25.0726  30.2564
    31.0525  35.1365

          k =-0.1326-0.4861 0.7513 (   461 PWs)   bands (ev):

    10.2491  10.5969  12.3948  14.1013  15.0166  18.7054  24.1214  26.9754
    28.6822  37.8437

          k =-0.0442-0.3977 0.6629 (   460 PWs)   bands (ev):

    10.5458  11.0748  11.8864  13.6297  15.3193  21.4236  22.9663  24.7606
    27.4742  39.9489

          k = 0.0442-0.3094 0.5745 (   461 PWs)   bands (ev):

    10.7397  11.0653  11.6350  13.6648  14.9791  19.7023  23.4582  26.0207
    28.9018  39.0199

          k =-0.7513 0.1326 0.1326 (   462 PWs)   bands (ev):

     9.8207  10.3184  13.5307  14.3160  15.1546  20.1114  22.4207  25.7269
    29.3353  35.6599

          k =-0.6629 0.2210 0.0442 (   461 PWs)   bands (ev):

    10.1132  10.4753  12.8732  14.1050  15.3220  20.6014  22.7308  25.7262
    27.7195  38.0574

          k =-0.5745 0.1326 0.1326 (   462 PWs)   bands (ev):

     9.9085  10.4747  13.0566  13.9444  15.2050  18.2515  23.6782  27.5967
    29.9263  35.4362

          k = 0.2210 0.2210 0.2210 (   468 PWs)   bands (ev):

     8.8472  12.2176  12.2176  12.4187  14.2615  14.2615  26.1476  33.7821
    37.3056  37.3056

          k = 0.3094 0.3094 0.1326 (   457 PWs)   bands (ev):

     9.4978  11.9087  12.3912  12.4225  14.0716  15.7749  24.7300  31.9315
    34.5664  37.3798

          k =-0.3094-0.3094 0.7513 (   458 PWs)   bands (ev):

    10.5158  11.4783  11.8764  13.0766  14.1286  17.8270  24.2967  27.1121
    34.6110  34.8211

          k =-0.2210-0.2210 0.6629 (   457 PWs)   bands (ev):

    10.2821  11.1351  12.3727  13.6044  14.7171  20.0862  22.4848  25.4385
    31.6949  35.1906

          k = 0.3977 0.2210 0.2210 (   460 PWs)   bands (ev):

     9.5042  11.7900  12.4257  12.6503  15.0337  16.0310  23.0103  32.9918
    33.9125  34.7376

          k =-0.2210-0.3977 0.8397 (   459 PWs)   bands (ev):

    10.2257  11.3128  12.1955  13.0239  14.8104  18.3172  22.1190  29.6615
    31.4107  36.4754

          k =-0.1326-0.3094 0.7513 (   460 PWs)   bands (ev):

    10.6018  11.0965  11.9198  13.5695  14.9801  20.4985  22.7174  25.3672
    29.3727  37.8844

          k =-0.8397 0.2210 0.2210 (   458 PWs)   bands (ev):

    10.1750  11.2164  12.3887  13.2059  14.9710  20.0695  20.6887  28.1511
    32.0420  34.8332

          k = 0.3094 0.3094 0.3094 (   470 PWs)   bands (ev):

     9.1077  11.9951  11.9951  14.9465  14.9465  14.9794  21.4419  32.7575
    35.7869  35.7869

          k =-0.3094-0.3094 0.9281 (   459 PWs)   bands (ev):

     9.5321  11.7047  12.2922  13.4806  14.9112  17.7105  20.5351  32.0119
    33.8584  34.7829

     the Fermi energy is    17.0117 ev

!    total energy              =     -66.87312253 Ry
     estimated scf accuracy    <       0.00000007 Ry
     smearing contrib. (-TS)   =       0.00003868 Ry
     internal energy E=F+TS    =     -66.87316121 Ry

     The total energy is F=E-TS. E is the sum of the following terms:
     one-electron contribution =      10.18539605 Ry
     hartree contribution      =       6.82757688 Ry
     xc contribution           =     -10.49344726 Ry
     ewald contribution        =     -73.39268687 Ry

     convergence has been achieved in   5 iterations


     Computing stress (Cartesian axis) and pressure

          total   stress  (Ry/bohr**3)                   (kbar)     P=       71.12
   0.00048345  -0.00000000  -0.00000000           71.12       -0.00       -0.00
  -0.00000000   0.00048345   0.00000000           -0.00       71.12        0.00
   0.00000000   0.00000000   0.00048345            0.00        0.00       71.12


     BFGS Geometry Optimization
     Energy error            =      1.9E-03 Ry
     Gradient error          =      0.0E+00 Ry/Bohr
     Cell gradient error     =      7.1E+01 kbar

     number of scf cycles    =   1
     number of bfgs steps    =   0

     enthalpy           new  =     -66.8731225313 Ry

     new trust radius        =       0.0251174702 bohr
     new conv_thr            =       0.0000001000 Ry

     new unit-cell volume =    111.93580 a.u.^3 (    16.58717 Ang^3 )
     density =     19.71829 g/cm^3

CELL_PARAMETERS (angstrom)
  -0.000000000   2.024172279   2.024172279
   2.024172279   0.000000000   2.024172279
   2.024172279   2.024172279   0.000000000

ATOMIC_POSITIONS (angstrom)
Au               0.0000000000        0.0000000000        0.0000000000    0   0   0


     Message from routine punch:
     Nothing written, as per user request (disk_io='none')
     NEW-OLD atomic charge density approx. for the potential
     New effective cutoffs (rho, wfc):  310.29   39.05

     total cpu time spent up to now is        5.7 secs

     Self-consistent Calculation

     iteration #  1     ecut=    40.00 Ry     beta= 0.70
     Davidson diagonalization with overlap
     ethr =  1.00E-06,  avg # of iterations =  3.6

     Threshold (ethr) on eigenvalues was too large:
     Diagonalizing with lowered threshold

     Davidson diagonalization with overlap
     ethr =  1.51E-08,  avg # of iterations =  1.1

     total cpu time spent up to now is        7.1 secs

     total energy              =     -66.87401944 Ry
     estimated scf accuracy    <       0.00000161 Ry

     iteration #  2     ecut=    40.00 Ry     beta= 0.70
     Davidson diagonalization with overlap
     ethr =  1.47E-08,  avg # of iterations =  2.0

     total cpu time spent up to now is        7.7 secs

     total energy              =     -66.87401986 Ry
     estimated scf accuracy    <       0.00000050 Ry

     iteration #  3     ecut=    40.00 Ry     beta= 0.70
     Davidson diagonalization with overlap
     ethr =  4.50E-09,  avg # of iterations =  1.7

     total cpu time spent up to now is        8.2 secs

     End of self-consistent calculation

          k = 0.0437 0.0437 0.0437 (   474 PWs)   bands (ev):

     6.0703  11.3014  11.3976  11.3976  12.9181  12.9181  32.7262  35.0435
    36.3373  36.3373

          k = 0.1310 0.1310-0.0437 (   475 PWs)   bands (ev):

     6.7874  11.0790  11.6137  11.6332  12.7028  13.0404  31.8232  33.2293
    35.5709  37.6862

          k = 0.2183 0.2183-0.1310 (   471 PWs)   bands (ev):

     8.1221  11.1713  11.6331  11.6917  12.9673  13.5804  26.8227  32.8885
    34.9520  37.9199

          k = 0.3057 0.3057-0.2183 (   464 PWs)   bands (ev):

     8.6789  11.3446  11.4574  12.8338  13.7735  14.6224  21.8296  32.0052
    33.6161  35.3148

          k =-0.3057-0.3057 0.3930 (   462 PWs)   bands (ev):

     8.6947  11.2378  11.3939  13.5189  14.2165  15.7406  19.4341  31.7497
    33.6885  33.9030

          k =-0.2183-0.2183 0.3057 (   465 PWs)   bands (ev):

     8.6066  11.3975  11.5635  12.0980  13.8938  13.9025  23.4091  32.4403
    34.1710  35.3803

          k =-0.1310-0.1310 0.2183 (   471 PWs)   bands (ev):

     7.6873  10.9961  11.6837  11.7393  12.8601  13.2633  28.5574  33.5001
    35.1169  37.7461

          k =-0.0437-0.0437 0.1310 (   468 PWs)   bands (ev):

     6.4390  11.1344  11.5494  11.5555  12.7268  13.0157  32.9191  33.7593
    35.6602  36.3837

          k = 0.2183 0.0437 0.0437 (   468 PWs)   bands (ev):

     7.1395  10.8124  11.8372  11.8642  12.4500  13.1988  32.1574  33.6515
    34.2752  35.5640

          k = 0.3057 0.1310-0.0437 (   469 PWs)   bands (ev):

     8.3149  10.5205  11.6272  12.2396  12.7804  13.6919  28.8810  31.5239
    34.2383  35.5498

          k = 0.3930 0.2183-0.1310 (   459 PWs)   bands (ev):

     9.1815  11.0441  11.2333  12.0821  13.8415  15.0187  23.7375  30.8253
    32.0227  34.6869

          k =-0.2183-0.3930 0.4803 (   459 PWs)   bands (ev):

     9.2520  10.8919  11.8676  12.2496  14.1463  17.6102  19.4698  30.2782
    31.2254  34.0096

          k =-0.1310-0.3057 0.3930 (   456 PWs)   bands (ev):

     9.2917  11.0269  11.6874  11.9874  13.6551  15.9218  22.2589  29.5947
    32.4600  35.0144

          k =-0.0437-0.2183 0.3057 (   466 PWs)   bands (ev):

     8.7685  10.6893  11.4531  12.1858  12.6960  14.2940  27.0974  30.1063
    34.2992  36.9802

          k = 0.0437-0.1310 0.2183 (   470 PWs)   bands (ev):

     7.4476  10.8513  11.7357  11.8637  12.5620  13.2997  30.3405  32.6966
    35.2393  36.8952

          k = 0.3930 0.0437 0.0437 (   462 PWs)   bands (ev):

     8.8720  10.0101  11.9968  12.8411  13.2314  13.7239  29.2264  30.6037
    31.5496  33.6051

          k = 0.4803 0.1310-0.0437 (   461 PWs)   bands (ev):

     9.3830   9.8568  11.9687  13.2353  13.9138  15.1530  25.7200  28.3292
    29.2468  34.7776

          k =-0.1310-0.4803 0.5677 (   460 PWs)   bands (ev):

     9.6087  10.3206  11.7301  12.8857  14.2304  18.2777  21.3425  26.5488
    29.0715  34.7868

          k =-0.0437-0.3930 0.4803 (   458 PWs)   bands (ev):

     9.9999  10.6896  11.2815  12.6227  13.7132  18.0717  22.3592  24.9545
    30.7669  34.9384

          k = 0.0437-0.3057 0.3930 (   464 PWs)   bands (ev):

     9.7970  10.8302  11.0360  12.3743  13.1641  15.9403  24.2887  27.2826
    32.6535  35.8560

          k = 0.1310-0.2183 0.3057 (   462 PWs)   bands (ev):

     8.6634  11.2083  11.4564  11.8030  13.2814  14.1501  25.2216  32.0022
    33.7325  36.1518

          k = 0.5677 0.0437 0.0437 (   456 PWs)   bands (ev):

     9.0463   9.3994  13.6687  13.8434  14.2799  15.5946  24.5622  27.1219
    27.6301  33.6362

          k =-0.0437-0.5677 0.6550 (   459 PWs)   bands (ev):

     9.1629   9.4844  13.2292  13.8016  14.4684  18.3431  21.9717  25.5293
    26.9629  34.9176

          k = 0.0437-0.4803 0.5677 (   460 PWs)   bands (ev):

     9.5818  10.1798  12.0349  13.1490  14.1874  19.9811  20.9094  24.2299
    28.6249  35.0286

          k = 0.1310-0.3930 0.4803 (   460 PWs)   bands (ev):

     9.6791  10.6842  11.7519  12.2617  13.9722  18.4272  20.0210  27.6381
    30.9161  34.4850

          k = 0.2183-0.3057 0.3930 (   459 PWs)   bands (ev):

     8.8991  11.1478  11.5813  12.6933  14.0710  15.8572  20.4999  31.6254
    32.4488  34.2185

          k =-0.6550 0.0437 0.0437 (   462 PWs)   bands (ev):

     8.9331   9.2636  14.0593  14.1594  14.4903  17.2339  22.2866  26.3209
    26.9157  33.7535

          k =-0.5677 0.1310-0.0437 (   461 PWs)   bands (ev):

     9.2803   9.6138  12.6916  13.6653  14.2525  16.6430  23.8845  26.5798
    27.6676  34.8240

          k =-0.4803 0.2183-0.1310 (   459 PWs)   bands (ev):

     9.5178  10.6268  11.3892  12.4765  14.1642  16.4450  22.4021  29.1285
    30.0259  34.5192

          k =-0.4803 0.0437 0.0437 (   461 PWs)   bands (ev):

     9.1426   9.6577  12.7601  13.3973  14.0068  14.1653  27.1853  28.7855
    28.9226  33.5198

          k =-0.3930 0.1310-0.0437 (   458 PWs)   bands (ev):

     9.1077  10.1717  11.5344  12.7102  13.3653  14.2251  27.3567  29.9765
    31.7850  34.9826

          k =-0.3057 0.0437 0.0437 (   470 PWs)   bands (ev):

     8.0579  10.4143  11.9013  12.3054  12.5868  13.4449  30.8337  32.4717
    33.7317  34.7252

          k = 0.1310 0.1310 0.1310 (   471 PWs)   bands (ev):

     7.1010  11.1003  11.6369  11.6369  12.9166  12.9166  30.1758  33.5841
    36.7856  36.7856

          k = 0.2183 0.2183 0.0437 (   469 PWs)   bands (ev):

     8.0230  10.8311  11.6629  11.9608  12.5042  13.7027  28.6425  31.4628
    35.5448  37.0191

          k = 0.3057 0.3057-0.0437 (   461 PWs)   bands (ev):

     9.3011  10.8189  11.3459  12.1366  12.7748  15.0444  25.5703  28.6680
    34.1675  36.4419

          k =-0.3057-0.3057 0.5677 (   455 PWs)   bands (ev):

     9.4524  10.8987  11.9689  11.9758  13.7344  16.9971  21.0339  28.5034
    33.2280  33.3745

          k =-0.2183-0.2183 0.4803 (   456 PWs)   bands (ev):

     9.3368  10.8443  11.8059  12.0661  14.2665  16.9831  20.6797  29.7406
    31.5701  33.2704

          k =-0.1310-0.1310 0.3930 (   460 PWs)   bands (ev):

     9.1214  10.5129  11.3929  12.2951  14.0111  14.2268  25.4836  31.4097
    31.8358  33.8408

          k = 0.3057 0.1310 0.1310 (   464 PWs)   bands (ev):

     8.4407  10.7777  11.5369  11.9580  13.2783  13.6547  27.0081  33.2102
    33.2864  35.2590

          k = 0.3930 0.2183 0.0437 (   462 PWs)   bands (ev):

     9.4825  10.4899  11.1321  12.5762  13.2133  15.0610  25.6599  28.6788
    32.0905  36.4629

          k =-0.2183-0.3930 0.6550 (   463 PWs)   bands (ev):

    10.1892  10.5832  10.8596  12.7405  13.6703  17.1384  23.2348  26.0374
    30.1239  36.6192

          k =-0.1310-0.3057 0.5677 (   462 PWs)   bands (ev):

     9.9689  10.4631  11.3867  12.6375  14.1038  19.1945  20.2990  26.7322
    28.7023  36.0557

          k =-0.0437-0.2183 0.4803 (   460 PWs)   bands (ev):

     9.7889  10.2544  11.2070  13.0376  13.7507  16.1788  24.3221  27.2786
    29.5870  36.3782

          k = 0.4803 0.1310 0.1310 (   459 PWs)   bands (ev):

     9.4028  10.1905  11.7263  12.7213  14.2597  15.6029  24.0045  29.0639
    29.9011  33.9266

          k =-0.1310-0.4803 0.7423 (   461 PWs)   bands (ev):

     9.6937  10.0224  11.7228  13.3229  14.1756  17.7627  23.0692  25.8732
    27.5537  36.5775

          k =-0.0437-0.3930 0.6550 (   460 PWs)   bands (ev):

     9.9803  10.4738  11.2427  12.8798  14.4576  20.3830  21.9612  23.7059
    26.3593  38.6635

          k = 0.0437-0.3057 0.5677 (   461 PWs)   bands (ev):

    10.1627  10.4647  11.0031  12.9133  14.1405  18.7230  22.4219  24.9289
    27.7597  37.7790

          k =-0.7423 0.1310 0.1310 (   462 PWs)   bands (ev):

     9.2871   9.7592  12.8010  13.5202  14.3033  19.1666  21.3823  24.6397
    28.2436  34.3966

          k =-0.6550 0.2183 0.0437 (   461 PWs)   bands (ev):

     9.5672   9.9064  12.1776  13.3248  14.4601  19.6321  21.6766  24.6649
    26.6246  36.7663

          k =-0.5677 0.1310 0.1310 (   462 PWs)   bands (ev):

     9.3677   9.9078  12.3520  13.1722  14.3495  17.3302  22.6483  26.4486
    28.8139  34.1966

          k = 0.2183 0.2183 0.2183 (   468 PWs)   bands (ev):

     8.3185  11.5466  11.5466  11.7570  13.4673  13.4673  25.0330  32.7978
    35.9656  35.9656

          k = 0.3057 0.3057 0.1310 (   457 PWs)   bands (ev):

     8.9526  11.2576  11.7322  11.7407  13.2902  14.9100  23.6394  30.7565
    33.4985  36.0359

          k =-0.3057-0.3057 0.7423 (   458 PWs)   bands (ev):

     9.9339  10.8594  11.2391  12.3583  13.3435  16.8938  23.2221  25.9841
    33.3314  33.7081

          k =-0.2183-0.2183 0.6550 (   457 PWs)   bands (ev):

     9.7210  10.5376  11.7045  12.8544  13.8945  19.1091  21.4681  24.3319
    30.5123  33.9995

          k = 0.3930 0.2183 0.2183 (   460 PWs)   bands (ev):

     8.9649  11.1485  11.7436  11.9756  14.1891  15.1869  21.9496  31.9428
    32.6816  33.4929

          k =-0.2183-0.3930 0.8297 (   459 PWs)   bands (ev):

     9.6593  10.7025  11.5395  12.3098  13.9826  17.3862  21.0921  28.4880
    30.2580  35.3076

          k =-0.1310-0.3057 0.7423 (   460 PWs)   bands (ev):

    10.0283  10.4977  11.2748  12.8228  14.1412  19.4973  21.7064  24.2727
    28.2298  36.6503

          k =-0.8297 0.2183 0.2183 (   458 PWs)   bands (ev):

     9.6156  10.6143  11.7201  12.4793  14.1315  19.0846  19.7186  26.9989
    30.8550  33.6753

          k = 0.3057 0.3057 0.3057 (   470 PWs)   bands (ev):

     8.5867  11.3376  11.3376  14.1081  14.1081  14.2702  20.3794  31.8212
    34.5261  34.5261

          k =-0.3057-0.3057 0.9170 (   459 PWs)   bands (ev):

     8.9951  11.0676  11.6182  12.7668  14.0754  16.8586  19.4809  30.8848
    32.7684  33.5329

     the Fermi energy is    16.1077 ev

!    total energy              =     -66.87401997 Ry
     estimated scf accuracy    <          9.6E-09 Ry
     smearing contrib. (-TS)   =       0.00003593 Ry
     internal energy E=F+TS    =     -66.87405589 Ry

     The total energy is F=E-TS. E is the sum of the following terms:
     one-electron contribution =       8.96371450 Ry
     hartree contribution      =       7.13937960 Ry
     xc contribution           =     -10.46090459 Ry
     ewald contribution        =     -72.51624541 Ry

     convergence has been achieved in   3 iterations


     Computing stress (Cartesian axis) and pressure

          total   stress  (Ry/bohr**3)                   (kbar)     P=       -3.82
  -0.00002600  -0.00000000  -0.00000000           -3.82       -0.00       -0.00
  -0.00000000  -0.00002600   0.00000000           -0.00       -3.82        0.00
  -0.00000000  -0.00000000  -0.00002600           -0.00       -0.00       -3.82

     Energy error            =      9.0E-04 Ry
     Gradient error          =      0.0E+00 Ry/Bohr
     Cell gradient error     =      3.8E+00 kbar

     number of scf cycles    =   2
     number of bfgs steps    =   1

     enthalpy           old  =     -66.8731225313 Ry
     enthalpy           new  =     -66.8740199657 Ry

     CASE: enthalpy          _new < enthalpy          _old

     new trust radius        =       0.0013192866 bohr
     new conv_thr            =       0.0000000010 Ry

     new unit-cell volume =    111.72656 a.u.^3 (    16.55617 Ang^3 )
     density =     19.75522 g/cm^3

CELL_PARAMETERS (angstrom)
  -0.000000000   2.022910242   2.022910242
   2.022910242   0.000000000   2.022910242
   2.022910242   2.022910242   0.000000000

ATOMIC_POSITIONS (angstrom)
Au               0.0000000000        0.0000000000        0.0000000000    0   0   0


     Message from routine punch:
     Nothing written, as per user request (disk_io='none')
     NEW-OLD atomic charge density approx. for the potential
     New effective cutoffs (rho, wfc):  310.68   39.10

     total cpu time spent up to now is        8.5 secs

     Self-consistent Calculation

     iteration #  1     ecut=    40.00 Ry     beta= 0.70
     Davidson diagonalization with overlap
     ethr =  1.00E-06,  avg # of iterations =  2.0

     Threshold (ethr) on eigenvalues was too large:
     Diagonalizing with lowered threshold

     Davidson diagonalization with overlap
     ethr =  9.41E-11,  avg # of iterations =  2.0

     total cpu time spent up to now is        9.9 secs

     total energy              =     -66.87402260 Ry
     estimated scf accuracy    <          8.1E-09 Ry

     iteration #  2     ecut=    40.00 Ry     beta= 0.70
     Davidson diagonalization with overlap
     ethr =  7.33E-11,  avg # of iterations =  2.0

     total cpu time spent up to now is       10.7 secs

     total energy              =     -66.87402260 Ry
     estimated scf accuracy    <          2.6E-09 Ry

     iteration #  3     ecut=    40.00 Ry     beta= 0.70
     Davidson diagonalization with overlap
     ethr =  2.38E-11,  avg # of iterations =  1.6

     total cpu time spent up to now is       11.2 secs

     End of self-consistent calculation

          k = 0.0437 0.0437 0.0437 (   474 PWs)   bands (ev):

     6.0945  11.3350  11.4315  11.4315  12.9569  12.9569  32.7756  35.1026
    36.3983  36.3983

          k = 0.1311 0.1311-0.0437 (   475 PWs)   bands (ev):

     6.8128  11.1118  11.6482  11.6678  12.7408  13.0796  31.8820  33.2833
    35.6324  37.7503

          k = 0.2185 0.2185-0.1311 (   471 PWs)   bands (ev):

     8.1492  11.2040  11.6675  11.7264  13.0061  13.6212  26.8807  32.9438
    35.0153  37.9923

          k = 0.3059 0.3059-0.2185 (   464 PWs)   bands (ev):

     8.7059  11.3782  11.4913  12.8697  13.8149  14.6650  21.8841  32.0559
    33.6790  35.3812

          k =-0.3059-0.3059 0.3932 (   462 PWs)   bands (ev):

     8.7215  11.2710  11.4276  13.5577  14.2596  15.7806  19.4883  31.7985
    33.7523  33.9667

          k =-0.2185-0.2185 0.3059 (   465 PWs)   bands (ev):

     8.6337  11.4312  11.5978  12.1324  13.9348  13.9445  23.4648  32.4905
    34.2364  35.4480

          k =-0.1311-0.1311 0.2185 (   471 PWs)   bands (ev):

     7.7140  11.0284  11.7184  11.7742  12.8985  13.3031  28.6162  33.5533
    35.1834  37.8142

          k =-0.0437-0.0437 0.1311 (   468 PWs)   bands (ev):

     6.4638  11.1673  11.5838  11.5899  12.7649  13.0548  32.9721  33.8161
    35.7232  36.4453

          k = 0.2185 0.0437 0.0437 (   468 PWs)   bands (ev):

     7.1655  10.8443  11.8724  11.8995  12.4871  13.2385  32.2170  33.7060
    34.3393  35.6245

          k = 0.3059 0.1311-0.0437 (   469 PWs)   bands (ev):

     8.3425  10.5514  11.6615  12.2760  12.8183  13.7330  28.9403  31.5859
    34.2969  35.6127

          k = 0.3932 0.2185-0.1311 (   459 PWs)   bands (ev):

     9.2097  11.0761  11.2664  12.1179  13.8830  15.0625  23.7928  30.8866
    32.0810  34.7496

          k =-0.2185-0.3932 0.4806 (   459 PWs)   bands (ev):

     9.2800  10.9237  11.9027  12.2848  14.1891  17.6552  19.5227  30.3387
    31.2840  34.0683

          k =-0.1311-0.3059 0.3932 (   456 PWs)   bands (ev):

     9.3200  11.0593  11.7213  12.0226  13.6960  15.9673  22.3130  29.6548
    32.5174  35.0772

          k =-0.0437-0.2185 0.3059 (   466 PWs)   bands (ev):

     8.7967  10.7207  11.4867  12.2219  12.7338  14.3368  27.1554  30.1678
    34.3569  37.0429

          k = 0.0437-0.1311 0.2185 (   470 PWs)   bands (ev):

     7.4740  10.8833  11.7705  11.8990  12.5994  13.3397  30.3997  32.7563
    35.2982  36.9559

          k = 0.3932 0.0437 0.0437 (   462 PWs)   bands (ev):

     8.8999  10.0395  12.0321  12.8794  13.2706  13.7653  29.2866  30.6639
    31.6132  33.6671

          k = 0.4806 0.1311-0.0437 (   461 PWs)   bands (ev):

     9.4110   9.8857  12.0038  13.2748  13.9556  15.1968  25.7767  28.3878
    29.3061  34.8411

          k =-0.1311-0.4806 0.5680 (   460 PWs)   bands (ev):

     9.6371  10.3506  11.7644  12.9240  14.2735  18.3268  21.3933  26.6075
    29.1296  34.8489

          k =-0.0437-0.3932 0.4806 (   458 PWs)   bands (ev):

    10.0296  10.7206  11.3144  12.6601  13.7544  18.1204  22.4128  25.0110
    30.8278  34.9991

          k = 0.0437-0.3059 0.3932 (   464 PWs)   bands (ev):

     9.8266  10.8620  11.0680  12.4109  13.2034  15.9866  24.3443  27.3415
    32.7131  35.9198

          k = 0.1311-0.2185 0.3059 (   462 PWs)   bands (ev):

     8.6911  11.2411  11.4900  11.8380  13.3210  14.1924  25.2785  32.0615
    33.7901  36.2201

          k = 0.5680 0.0437 0.0437 (   456 PWs)   bands (ev):

     9.0731   9.4271  13.7087  13.8851  14.3231  15.6367  24.6211  27.1767
    27.6844  33.6993

          k =-0.0437-0.5680 0.6554 (   459 PWs)   bands (ev):

     9.1898   9.5123  13.2679  13.8431  14.5123  18.3886  22.0281  25.5830
    27.0171  34.9827

          k = 0.0437-0.4806 0.5680 (   460 PWs)   bands (ev):

     9.6099  10.2094  12.0700  13.1881  14.2303  20.0333  20.9586  24.2860
    28.6825  35.0921

          k = 0.1311-0.3932 0.4806 (   460 PWs)   bands (ev):

     9.7080  10.7153  11.7859  12.2980  14.0143  18.4754  20.0726  27.6971
    30.9763  34.5441

          k = 0.2185-0.3059 0.3932 (   459 PWs)   bands (ev):

     8.9264  11.1806  11.6155  12.7295  14.1134  15.9006  20.5534  31.6799
    32.5093  34.2817

          k =-0.6554 0.0437 0.0437 (   462 PWs)   bands (ev):

     8.9594   9.2909  14.1018  14.2015  14.5343  17.2758  22.3451  26.3736
    26.9684  33.8175

          k =-0.5680 0.1311-0.0437 (   461 PWs)   bands (ev):

     9.3076   9.6421  12.7286  13.7062  14.2956  16.6883  23.9403  26.6361
    27.7234  34.8883

          k =-0.4806 0.2185-0.1311 (   459 PWs)   bands (ev):

     9.5463  10.6577  11.4226  12.5135  14.2070  16.4910  22.4552  29.1895
    30.0846  34.5799

          k =-0.4806 0.0437 0.0437 (   461 PWs)   bands (ev):

     9.1701   9.6861  12.7970  13.4375  14.0491  14.2064  27.2450  28.8449
    28.9797  33.5817

          k =-0.3932 0.1311-0.0437 (   458 PWs)   bands (ev):

     9.1361  10.2016  11.5683  12.7480  13.4051  14.2675  27.4151  30.0371
    31.8460  35.0463

          k =-0.3059 0.0437 0.0437 (   470 PWs)   bands (ev):

     8.0851  10.4449  11.9365  12.3420  12.6242  13.4854  30.8944  32.5345
    33.7891  34.7878

          k = 0.1311 0.1311 0.1311 (   471 PWs)   bands (ev):

     7.1269  11.1330  11.6715  11.6715  12.9553  12.9553  30.2348  33.6359
    36.8521  36.8521

          k = 0.2185 0.2185 0.0437 (   469 PWs)   bands (ev):

     8.0503  10.8629  11.6974  11.9963  12.5414  13.7438  28.7012  31.5243
    35.6026  37.0777

          k = 0.3059 0.3059-0.0437 (   461 PWs)   bands (ev):

     9.3300  10.8507  11.3790  12.1726  12.8129  15.0890  25.6271  28.7285
    34.2230  36.5121

          k =-0.3059-0.3059 0.5680 (   455 PWs)   bands (ev):

     9.4810  10.9305  12.0032  12.0113  13.7757  17.0437  21.0869  28.5627
    33.2831  33.4392

          k =-0.2185-0.2185 0.4806 (   456 PWs)   bands (ev):

     9.3650  10.8759  11.8401  12.1019  14.3097  17.0291  20.7318  29.8006
    31.6315  33.3281

          k =-0.1311-0.1311 0.3932 (   460 PWs)   bands (ev):

     9.1496  10.5437  11.4264  12.3316  14.0535  14.2683  25.5403  31.4712
    31.8961  33.9032

          k = 0.3059 0.1311 0.1311 (   464 PWs)   bands (ev):

     8.4684  10.8093  11.5709  11.9936  13.3177  13.6958  27.0663  33.2745
    33.3405  35.3267

          k = 0.3932 0.2185 0.0437 (   462 PWs)   bands (ev):

     9.5116  10.5207  11.1648  12.6135  13.2527  15.1055  25.7167  28.7389
    32.1504  36.5268

          k =-0.2185-0.3932 0.6554 (   463 PWs)   bands (ev):

    10.2194  10.6140  10.8914  12.7782  13.7113  17.1862  23.2891  26.0947
    30.1839  36.6812

          k =-0.1311-0.3059 0.5680 (   462 PWs)   bands (ev):

     9.9984  10.4935  11.4198  12.6750  14.1464  19.2457  20.3485  26.7909
    28.7605  36.1168

          k =-0.0437-0.2185 0.4806 (   460 PWs)   bands (ev):

     9.8179  10.2844  11.2399  13.0763  13.7919  16.2249  24.3772  27.3366
    29.6467  36.4417

          k = 0.4806 0.1311 0.1311 (   459 PWs)   bands (ev):

     9.4309  10.2203  11.7607  12.7591  14.3029  15.6472  24.0590  29.1249
    29.9600  33.9885

          k =-0.1311-0.4806 0.7428 (   461 PWs)   bands (ev):

     9.7221  10.0518  11.7571  13.3626  14.2184  17.8107  23.1229  25.9295
    27.6112  36.6423

          k =-0.0437-0.3932 0.6554 (   460 PWs)   bands (ev):

    10.0092  10.5045  11.2756  12.9180  14.5014  20.4361  22.0125  23.7597
    26.4161  38.7293

          k = 0.0437-0.3059 0.5680 (   461 PWs)   bands (ev):

    10.1922  10.4953  11.0354  12.9516  14.1832  18.7729  22.4748  24.9846
    27.8180  37.8425

          k =-0.7428 0.1311 0.1311 (   462 PWs)   bands (ev):

     9.3144   9.7878  12.8383  13.5607  14.3466  19.2148  21.4353  24.6951
    28.2994  34.4611

          k =-0.6554 0.2185 0.0437 (   461 PWs)   bands (ev):

     9.5951   9.9355  12.2131  13.3646  14.5039  19.6815  21.7304  24.7190
    26.6804  36.8323

          k =-0.5680 0.1311 0.1311 (   462 PWs)   bands (ev):

     9.3954   9.9368  12.3880  13.2115  14.3930  17.3771  22.7009  26.5071
    28.8707  34.2599

          k = 0.2185 0.2185 0.2185 (   468 PWs)   bands (ev):

     8.3455  11.5808  11.5808  11.7908  13.5077  13.5077  25.0898  32.8482
    36.0342  36.0342

          k = 0.3059 0.3059 0.1311 (   457 PWs)   bands (ev):

     8.9804  11.2908  11.7658  11.7755  13.3300  14.9540  23.6950  30.8167
    33.5530  36.1046

          k =-0.3059-0.3059 0.7428 (   458 PWs)   bands (ev):

     9.9636  10.8910  11.2717  12.3949  13.3835  16.9413  23.2768  26.0417
    33.3968  33.7651

          k =-0.2185-0.2185 0.6554 (   457 PWs)   bands (ev):

     9.7497  10.5681  11.7386  12.8926  13.9364  19.1590  21.5199  24.3883
    30.5727  34.0604

          k = 0.3932 0.2185 0.2185 (   460 PWs)   bands (ev):

     8.9925  11.1813  11.7784  12.0100  14.2320  15.2299  22.0036  31.9968
    32.7445  33.5562

          k =-0.2185-0.3932 0.8302 (   459 PWs)   bands (ev):

     9.6883  10.7337  11.5729  12.3463  14.0247  17.4336  21.1444  28.5479
    30.3170  35.3673

          k =-0.1311-0.3059 0.7428 (   460 PWs)   bands (ev):

    10.0576  10.5283  11.3078  12.8608  14.1839  19.5484  21.7579  24.3284
    28.2881  36.7135

          k =-0.8302 0.2185 0.2185 (   458 PWs)   bands (ev):

     9.6442  10.6450  11.7542  12.5163  14.1742  19.1350  19.7678  27.0577
    30.9156  33.7345

          k = 0.3059 0.3059 0.3059 (   470 PWs)   bands (ev):

     8.6134  11.3711  11.3711  14.1507  14.1507  14.3064  20.4335  31.8692
    34.5907  34.5907

          k =-0.3059-0.3059 0.9176 (   459 PWs)   bands (ev):

     9.0225  11.1001  11.6526  12.8033  14.1179  16.9019  19.5345  30.9428
    32.8239  33.5969

     the Fermi energy is    16.1536 ev

!    total energy              =     -66.87402260 Ry
     estimated scf accuracy    <          3.1E-11 Ry
     smearing contrib. (-TS)   =       0.00003646 Ry
     internal energy E=F+TS    =     -66.87405906 Ry

     The total energy is F=E-TS. E is the sum of the following terms:
     one-electron contribution =       9.02689107 Ry
     hartree contribution      =       7.12309782 Ry
     xc contribution           =     -10.46256169 Ry
     ewald contribution        =     -72.56148626 Ry

     convergence has been achieved in   3 iterations


     Computing stress (Cartesian axis) and pressure

          total   stress  (Ry/bohr**3)                   (kbar)     P=       -0.04
  -0.00000026  -0.00000000  -0.00000000           -0.04       -0.00       -0.00
  -0.00000000  -0.00000026  -0.00000000           -0.00       -0.04       -0.00
  -0.00000000  -0.00000000  -0.00000026           -0.00       -0.00       -0.04

     Energy error            =      2.6E-06 Ry
     Gradient error          =      0.0E+00 Ry/Bohr
     Cell gradient error     =      3.8E-02 kbar

     bfgs converged in   3 scf cycles and   2 bfgs steps
     (criteria: energy <  1.0E-04 Ry, force <  1.0E-03 Ry/Bohr, cell <  5.0E-01 kbar)

     End of BFGS Geometry Optimization

     Final enthalpy           =     -66.8740225988 Ry

     File /home/bond/Work/Lab4/Problem3/Au_nk_8/pwscf.bfgs deleted, as requested
Begin final coordinates
     new unit-cell volume =    111.72656 a.u.^3 (    16.55617 Ang^3 )
     density =     19.75522 g/cm^3

CELL_PARAMETERS (angstrom)
  -0.000000000   2.022910242   2.022910242
   2.022910242   0.000000000   2.022910242
   2.022910242   2.022910242   0.000000000

ATOMIC_POSITIONS (angstrom)
Au               0.0000000000        0.0000000000        0.0000000000    0   0   0
End final coordinates


     Message from routine punch:
     Nothing written, as per user request (disk_io='none')

     Final scf calculation at the relaxed structure.
     The G-vectors are recalculated for the final unit cell
     Results may differ from those at the preceding step.

     Parallelization info
     --------------------
     sticks:   dense  smooth     PW     G-vecs:    dense   smooth      PW
     Min         324     156     60                 5423     1917     410
     Max         325     157     61                 5426     1922     411
     Sum         649     313    121                10849     3839     821

     Using Slab Decomposition



     bravais-lattice index     =            0
     lattice parameter (alat)  =       5.3450  a.u.
     unit-cell volume          =     111.7266 (a.u.)^3
     number of atoms/cell      =            1
     number of atomic types    =            1
     number of electrons       =        11.00
     number of Kohn-Sham states=           10
     kinetic-energy cutoff     =      40.0000  Ry
     charge density cutoff     =     320.0000  Ry
     scf convergence threshold =      1.0E-09
     mixing beta               =       0.7000
     number of iterations used =            8  plain     mixing
     press convergence thresh. =      5.0E-01
     Exchange-correlation=  SLA  PZ   NOGX NOGC
                           (   1   1   0   0   0   0   0)

     celldm(1)=   5.344953  celldm(2)=   0.000000  celldm(3)=   0.000000
     celldm(4)=   0.000000  celldm(5)=   0.000000  celldm(6)=   0.000000

     crystal axes: (cart. coord. in units of alat)
               a(1) = (  -0.000000   0.715207   0.715207 )  
               a(2) = (   0.715207   0.000000   0.715207 )  
               a(3) = (   0.715207   0.715207   0.000000 )  

     reciprocal axes: (cart. coord. in units 2 pi/alat)
               b(1) = ( -0.699099  0.699099  0.699099 )  
               b(2) = (  0.699099 -0.699099  0.699099 )  
               b(3) = (  0.699099  0.699099 -0.699099 )  


     PseudoPot. # 1 for Au read from file:
     /home/bond/Software/QE/qe-7.4.1/pseudo/Au.pz-d-rrkjus.UPF
     MD5 check sum: 424ffd4ac9c90487cbadcd287136c95b
     Pseudo is Ultrasoft, Zval = 11.0
     Generated by new atomic code, or converted to UPF format
     Using radial grid of 1279 points,  3 beta functions with: 
                l(1) =   2
                l(2) =   2
                l(3) =   1
     Q(r) pseudized with 0 coefficients 


     atomic species   valence    mass     pseudopotential
     Au               11.00   196.96657     Au( 1.00)

     48 Sym. Ops., with inversion, found



   Cartesian axes

     site n.     atom                  positions (alat units)
         1        Au     tau(   1) = (   0.0000000   0.0000000   0.0000000  )

     number of k points=    60  Methfessel-Paxton smearing, width (Ry)=  0.0200
                       cart. coord. in units 2pi/alat
        k(    1) = (   0.0436937   0.0436937   0.0436937), wk =   0.0078125
        k(    2) = (   0.1310810   0.1310810  -0.0436937), wk =   0.0234375
        k(    3) = (   0.2184683   0.2184683  -0.1310810), wk =   0.0234375
        k(    4) = (   0.3058556   0.3058556  -0.2184683), wk =   0.0234375
        k(    5) = (  -0.3058556  -0.3058556   0.3932429), wk =   0.0234375
        k(    6) = (  -0.2184683  -0.2184683   0.3058556), wk =   0.0234375
        k(    7) = (  -0.1310810  -0.1310810   0.2184683), wk =   0.0234375
        k(    8) = (  -0.0436937  -0.0436937   0.1310810), wk =   0.0234375
        k(    9) = (   0.2184683   0.0436937   0.0436937), wk =   0.0234375
        k(   10) = (   0.3058556   0.1310810  -0.0436937), wk =   0.0468750
        k(   11) = (   0.3932429   0.2184683  -0.1310810), wk =   0.0468750
        k(   12) = (  -0.2184683  -0.3932429   0.4806302), wk =   0.0468750
        k(   13) = (  -0.1310810  -0.3058556   0.3932429), wk =   0.0468750
        k(   14) = (  -0.0436937  -0.2184683   0.3058556), wk =   0.0468750
        k(   15) = (   0.0436937  -0.1310810   0.2184683), wk =   0.0468750
        k(   16) = (   0.3932429   0.0436937   0.0436937), wk =   0.0234375
        k(   17) = (   0.4806302   0.1310810  -0.0436937), wk =   0.0468750
        k(   18) = (  -0.1310810  -0.4806302   0.5680175), wk =   0.0468750
        k(   19) = (  -0.0436937  -0.3932429   0.4806302), wk =   0.0468750
        k(   20) = (   0.0436937  -0.3058556   0.3932429), wk =   0.0468750
        k(   21) = (   0.1310810  -0.2184683   0.3058556), wk =   0.0468750
        k(   22) = (   0.5680175   0.0436937   0.0436937), wk =   0.0234375
        k(   23) = (  -0.0436937  -0.5680175   0.6554049), wk =   0.0468750
        k(   24) = (   0.0436937  -0.4806302   0.5680175), wk =   0.0468750
        k(   25) = (   0.1310810  -0.3932429   0.4806302), wk =   0.0468750
        k(   26) = (   0.2184683  -0.3058556   0.3932429), wk =   0.0468750
        k(   27) = (  -0.6554049   0.0436937   0.0436937), wk =   0.0234375
        k(   28) = (  -0.5680175   0.1310810  -0.0436937), wk =   0.0468750
        k(   29) = (  -0.4806302   0.2184683  -0.1310810), wk =   0.0468750
        k(   30) = (  -0.4806302   0.0436937   0.0436937), wk =   0.0234375
        k(   31) = (  -0.3932429   0.1310810  -0.0436937), wk =   0.0468750
        k(   32) = (  -0.3058556   0.0436937   0.0436937), wk =   0.0234375
        k(   33) = (   0.1310810   0.1310810   0.1310810), wk =   0.0078125
        k(   34) = (   0.2184683   0.2184683   0.0436937), wk =   0.0234375
        k(   35) = (   0.3058556   0.3058556  -0.0436937), wk =   0.0234375
        k(   36) = (  -0.3058556  -0.3058556   0.5680175), wk =   0.0234375
        k(   37) = (  -0.2184683  -0.2184683   0.4806302), wk =   0.0234375
        k(   38) = (  -0.1310810  -0.1310810   0.3932429), wk =   0.0234375
        k(   39) = (   0.3058556   0.1310810   0.1310810), wk =   0.0234375
        k(   40) = (   0.3932429   0.2184683   0.0436937), wk =   0.0468750
        k(   41) = (  -0.2184683  -0.3932429   0.6554049), wk =   0.0468750
        k(   42) = (  -0.1310810  -0.3058556   0.5680175), wk =   0.0468750
        k(   43) = (  -0.0436937  -0.2184683   0.4806302), wk =   0.0468750
        k(   44) = (   0.4806302   0.1310810   0.1310810), wk =   0.0234375
        k(   45) = (  -0.1310810  -0.4806302   0.7427922), wk =   0.0468750
        k(   46) = (  -0.0436937  -0.3932429   0.6554049), wk =   0.0468750
        k(   47) = (   0.0436937  -0.3058556   0.5680175), wk =   0.0468750
        k(   48) = (  -0.7427922   0.1310810   0.1310810), wk =   0.0234375
        k(   49) = (  -0.6554049   0.2184683   0.0436937), wk =   0.0468750
        k(   50) = (  -0.5680175   0.1310810   0.1310810), wk =   0.0234375
        k(   51) = (   0.2184683   0.2184683   0.2184683), wk =   0.0078125
        k(   52) = (   0.3058556   0.3058556   0.1310810), wk =   0.0234375
        k(   53) = (  -0.3058556  -0.3058556   0.7427922), wk =   0.0234375
        k(   54) = (  -0.2184683  -0.2184683   0.6554049), wk =   0.0234375
        k(   55) = (   0.3932429   0.2184683   0.2184683), wk =   0.0234375
        k(   56) = (  -0.2184683  -0.3932429   0.8301795), wk =   0.0468750
        k(   57) = (  -0.1310810  -0.3058556   0.7427922), wk =   0.0468750
        k(   58) = (  -0.8301795   0.2184683   0.2184683), wk =   0.0234375
        k(   59) = (   0.3058556   0.3058556   0.3058556), wk =   0.0078125
        k(   60) = (  -0.3058556  -0.3058556   0.9175668), wk =   0.0234375

     Dense  grid:    10849 G-vectors     FFT dimensions: (  32,  32,  32)

     Smooth grid:     3839 G-vectors     FFT dimensions: (  24,  24,  24)

     Estimated max dynamical RAM per process >      16.50 MB

     Estimated total dynamical RAM >      32.99 MB

     Initial potential from superposition of free atoms

     starting charge      10.9999, renormalised to      11.0000
     Starting wfcs are    9 randomized atomic wfcs +    1 random wfcs

     total cpu time spent up to now is       11.7 secs

     Self-consistent Calculation

     iteration #  1     ecut=    40.00 Ry     beta= 0.70
     Davidson diagonalization with overlap
     ethr =  1.00E-06,  avg # of iterations = 11.7

     total cpu time spent up to now is       13.3 secs

     total energy              =     -66.84576744 Ry
     estimated scf accuracy    <       0.07832109 Ry

     iteration #  2     ecut=    40.00 Ry     beta= 0.70
     Davidson diagonalization with overlap
     ethr =  7.12E-04,  avg # of iterations =  2.0

     total cpu time spent up to now is       13.9 secs

     total energy              =     -66.86897512 Ry
     estimated scf accuracy    <       0.02606179 Ry

     iteration #  3     ecut=    40.00 Ry     beta= 0.70
     Davidson diagonalization with overlap
     ethr =  2.37E-04,  avg # of iterations =  1.7

     total cpu time spent up to now is       14.5 secs

     total energy              =     -66.87403189 Ry
     estimated scf accuracy    <       0.00003023 Ry

     iteration #  4     ecut=    40.00 Ry     beta= 0.70
     Davidson diagonalization with overlap
     ethr =  2.75E-07,  avg # of iterations =  2.3

     total cpu time spent up to now is       15.0 secs

     total energy              =     -66.87405065 Ry
     estimated scf accuracy    <       0.00000291 Ry

     iteration #  5     ecut=    40.00 Ry     beta= 0.70
     Davidson diagonalization with overlap
     ethr =  2.65E-08,  avg # of iterations =  1.0

     total cpu time spent up to now is       15.5 secs

     total energy              =     -66.87405076 Ry
     estimated scf accuracy    <       0.00000012 Ry

     iteration #  6     ecut=    40.00 Ry     beta= 0.70
     Davidson diagonalization with overlap
     ethr =  1.11E-09,  avg # of iterations =  2.0

     total cpu time spent up to now is       16.0 secs

     total energy              =     -66.87405079 Ry
     estimated scf accuracy    <          5.1E-09 Ry

     iteration #  7     ecut=    40.00 Ry     beta= 0.70
     Davidson diagonalization with overlap
     ethr =  4.64E-11,  avg # of iterations =  2.0

     total cpu time spent up to now is       16.6 secs

     End of self-consistent calculation

          k = 0.0437 0.0437 0.0437 (   495 PWs)   bands (ev):

     6.0945  11.3349  11.4313  11.4313  12.9567  12.9567  32.7755  35.1026
    36.3983  36.3983

          k = 0.1311 0.1311-0.0437 (   493 PWs)   bands (ev):

     6.8129  11.1117  11.6480  11.6676  12.7407  13.0794  31.8819  33.2833
    35.6324  37.7503

          k = 0.2185 0.2185-0.1311 (   481 PWs)   bands (ev):

     8.1492  11.2039  11.6674  11.7263  13.0059  13.6211  26.8807  32.9438
    35.0152  37.9922

          k = 0.3059 0.3059-0.2185 (   477 PWs)   bands (ev):

     8.7059  11.3781  11.4912  12.8696  13.8148  14.6649  21.8840  32.0559
    33.6790  35.3812

          k =-0.3059-0.3059 0.3932 (   472 PWs)   bands (ev):

     8.7214  11.2709  11.4275  13.5576  14.2595  15.7806  19.4882  31.7985
    33.7523  33.9668

          k =-0.2185-0.2185 0.3059 (   480 PWs)   bands (ev):

     8.6337  11.4311  11.5976  12.1323  13.9347  13.9444  23.4647  32.4905
    34.2364  35.4479

          k =-0.1311-0.1311 0.2185 (   486 PWs)   bands (ev):

     7.7141  11.0283  11.7182  11.7740  12.8983  13.3030  28.6161  33.5533
    35.1834  37.8140

          k =-0.0437-0.0437 0.1311 (   500 PWs)   bands (ev):

     6.4639  11.1671  11.5836  11.5897  12.7648  13.0546  32.9720  33.8160
    35.7231  36.4453

          k = 0.2185 0.0437 0.0437 (   488 PWs)   bands (ev):

     7.1655  10.8442  11.8723  11.8993  12.4869  13.2384  32.2170  33.7060
    34.3393  35.6244

          k = 0.3059 0.1311-0.0437 (   480 PWs)   bands (ev):

     8.3425  10.5513  11.6614  12.2758  12.8182  13.7329  28.9403  31.5858
    34.2969  35.6126

          k = 0.3932 0.2185-0.1311 (   478 PWs)   bands (ev):

     9.2096  11.0760  11.2663  12.1178  13.8829  15.0624  23.7927  30.8866
    32.0809  34.7496

          k =-0.2185-0.3932 0.4806 (   472 PWs)   bands (ev):

     9.2800  10.9236  11.9026  12.2847  14.1889  17.6551  19.5227  30.3386
    31.2839  34.0683

          k =-0.1311-0.3059 0.3932 (   477 PWs)   bands (ev):

     9.3199  11.0591  11.7212  12.0225  13.6959  15.9672  22.3129  29.6548
    32.5173  35.0772

          k =-0.0437-0.2185 0.3059 (   479 PWs)   bands (ev):

     8.7967  10.7206  11.4866  12.2218  12.7337  14.3366  27.1553  30.1677
    34.3569  37.0428

          k = 0.0437-0.1311 0.2185 (   486 PWs)   bands (ev):

     7.4740  10.8832  11.7703  11.8988  12.5993  13.3396  30.3996  32.7562
    35.2981  36.9559

          k = 0.3932 0.0437 0.0437 (   478 PWs)   bands (ev):

     8.8998  10.0394  12.0319  12.8792  13.2704  13.7652  29.2866  30.6639
    31.6131  33.6670

          k = 0.4806 0.1311-0.0437 (   472 PWs)   bands (ev):

     9.4109   9.8857  12.0037  13.2747  13.9555  15.1967  25.7767  28.3878
    29.3061  34.8410

          k =-0.1311-0.4806 0.5680 (   473 PWs)   bands (ev):

     9.6370  10.3505  11.7643  12.9238  14.2733  18.3267  21.3933  26.6075
    29.1296  34.8488

          k =-0.0437-0.3932 0.4806 (   474 PWs)   bands (ev):

    10.0295  10.7205  11.3143  12.6600  13.7542  18.1204  22.4128  25.0109
    30.8278  34.9991

          k = 0.0437-0.3059 0.3932 (   480 PWs)   bands (ev):

     9.8265  10.8619  11.0679  12.4107  13.2033  15.9865  24.3443  27.3415
    32.7131  35.9198

          k = 0.1311-0.2185 0.3059 (   482 PWs)   bands (ev):

     8.6910  11.2410  11.4899  11.8379  13.3208  14.1923  25.2785  32.0614
    33.7901  36.2201

          k = 0.5680 0.0437 0.0437 (   468 PWs)   bands (ev):

     9.0730   9.4270  13.7086  13.8849  14.3230  15.6367  24.6211  27.1767
    27.6844  33.6992

          k =-0.0437-0.5680 0.6554 (   471 PWs)   bands (ev):

     9.1897   9.5122  13.2678  13.8429  14.5121  18.3886  22.0281  25.5829
    27.0171  34.9826

          k = 0.0437-0.4806 0.5680 (   478 PWs)   bands (ev):

     9.6098  10.2093  12.0699  13.1880  14.2301  20.0333  20.9586  24.2860
    28.6825  35.0919

          k = 0.1311-0.3932 0.4806 (   472 PWs)   bands (ev):

     9.7080  10.7152  11.7858  12.2979  14.0142  18.4754  20.0726  27.6971
    30.9762  34.5441

          k = 0.2185-0.3059 0.3932 (   474 PWs)   bands (ev):

     8.9263  11.1805  11.6154  12.7294  14.1133  15.9005  20.5534  31.6799
    32.5093  34.2817

          k =-0.6554 0.0437 0.0437 (   466 PWs)   bands (ev):

     8.9593   9.2908  14.1017  14.2014  14.5342  17.2758  22.3451  26.3736
    26.9684  33.8174

          k =-0.5680 0.1311-0.0437 (   472 PWs)   bands (ev):

     9.3075   9.6420  12.7285  13.7060  14.2955  16.6882  23.9403  26.6361
    27.7234  34.8882

          k =-0.4806 0.2185-0.1311 (   477 PWs)   bands (ev):

     9.5462  10.6575  11.4225  12.5134  14.2069  16.4909  22.4552  29.1894
    30.0846  34.5798

          k =-0.4806 0.0437 0.0437 (   474 PWs)   bands (ev):

     9.1700   9.6860  12.7969  13.4373  14.0490  14.2063  27.2450  28.8449
    28.9797  33.5816

          k =-0.3932 0.1311-0.0437 (   478 PWs)   bands (ev):

     9.1360  10.2015  11.5682  12.7478  13.4049  14.2674  27.4151  30.0371
    31.8459  35.0463

          k =-0.3059 0.0437 0.0437 (   484 PWs)   bands (ev):

     8.0851  10.4448  11.9364  12.3418  12.6240  13.4853  30.8944  32.5345
    33.7890  34.7878

          k = 0.1311 0.1311 0.1311 (   489 PWs)   bands (ev):

     7.1269  11.1329  11.6713  11.6713  12.9551  12.9551  30.2347  33.6358
    36.8519  36.8519

          k = 0.2185 0.2185 0.0437 (   487 PWs)   bands (ev):

     8.0503  10.8628  11.6972  11.9961  12.5412  13.7437  28.7011  31.5243
    35.6025  37.0776

          k = 0.3059 0.3059-0.0437 (   483 PWs)   bands (ev):

     9.3300  10.8506  11.3789  12.1724  12.8127  15.0889  25.6270  28.7284
    34.2230  36.5120

          k =-0.3059-0.3059 0.5680 (   474 PWs)   bands (ev):

     9.4809  10.9304  12.0031  12.0111  13.7755  17.0437  21.0869  28.5627
    33.2831  33.4392

          k =-0.2185-0.2185 0.4806 (   474 PWs)   bands (ev):

     9.3649  10.8757  11.8400  12.1017  14.3096  17.0290  20.7318  29.8006
    31.6316  33.3281

          k =-0.1311-0.1311 0.3932 (   475 PWs)   bands (ev):

     9.1495  10.5436  11.4263  12.3315  14.0534  14.2682  25.5403  31.4712
    31.8960  33.9032

          k = 0.3059 0.1311 0.1311 (   483 PWs)   bands (ev):

     8.4684  10.8092  11.5708  11.9934  13.3175  13.6957  27.0663  33.2744
    33.3404  35.3266

          k = 0.3932 0.2185 0.0437 (   476 PWs)   bands (ev):

     9.5115  10.5206  11.1647  12.6133  13.2525  15.1053  25.7167  28.7388
    32.1503  36.5267

          k =-0.2185-0.3932 0.6554 (   478 PWs)   bands (ev):

    10.2193  10.6139  10.8913  12.7781  13.7112  17.1862  23.2891  26.0946
    30.1839  36.6812

          k =-0.1311-0.3059 0.5680 (   478 PWs)   bands (ev):

     9.9983  10.4934  11.4197  12.6748  14.1462  19.2457  20.3485  26.7909
    28.7605  36.1168

          k =-0.0437-0.2185 0.4806 (   476 PWs)   bands (ev):

     9.8179  10.2843  11.2398  13.0761  13.7918  16.2249  24.3772  27.3366
    29.6466  36.4416

          k = 0.4806 0.1311 0.1311 (   470 PWs)   bands (ev):

     9.4309  10.2202  11.7606  12.7590  14.3028  15.6471  24.0590  29.1248
    29.9600  33.9884

          k =-0.1311-0.4806 0.7428 (   477 PWs)   bands (ev):

     9.7220  10.0517  11.7570  13.3624  14.2183  17.8107  23.1229  25.9295
    27.6112  36.6422

          k =-0.0437-0.3932 0.6554 (   476 PWs)   bands (ev):

    10.0091  10.5043  11.2754  12.9179  14.5013  20.4361  22.0124  23.7597
    26.4161  38.7291

          k = 0.0437-0.3059 0.5680 (   477 PWs)   bands (ev):

    10.1921  10.4952  11.0353  12.9514  14.1830  18.7729  22.4747  24.9846
    27.8179  37.8424

          k =-0.7428 0.1311 0.1311 (   473 PWs)   bands (ev):

     9.3144   9.7877  12.8381  13.5606  14.3465  19.2147  21.4353  24.6950
    28.2995  34.4610

          k =-0.6554 0.2185 0.0437 (   477 PWs)   bands (ev):

     9.5950   9.9354  12.2130  13.3644  14.5038  19.6815  21.7303  24.7190
    26.6804  36.8322

          k =-0.5680 0.1311 0.1311 (   474 PWs)   bands (ev):

     9.3953   9.9367  12.3879  13.2114  14.3928  17.3771  22.7009  26.5070
    28.8707  34.2598

          k = 0.2185 0.2185 0.2185 (   486 PWs)   bands (ev):

     8.3455  11.5807  11.5807  11.7907  13.5076  13.5076  25.0898  32.8482
    36.0341  36.0341

          k = 0.3059 0.3059 0.1311 (   480 PWs)   bands (ev):

     8.9803  11.2907  11.7657  11.7754  13.3299  14.9539  23.6950  30.8167
    33.5530  36.1046

          k =-0.3059-0.3059 0.7428 (   479 PWs)   bands (ev):

     9.9635  10.8909  11.2716  12.3948  13.3834  16.9412  23.2768  26.0416
    33.3968  33.7650

          k =-0.2185-0.2185 0.6554 (   471 PWs)   bands (ev):

     9.7496  10.5680  11.7385  12.8924  13.9362  19.1589  21.5199  24.3883
    30.5727  34.0603

          k = 0.3932 0.2185 0.2185 (   475 PWs)   bands (ev):

     8.9924  11.1812  11.7783  12.0099  14.2319  15.2298  22.0036  31.9968
    32.7445  33.5562

          k =-0.2185-0.3932 0.8302 (   477 PWs)   bands (ev):

     9.6882  10.7335  11.5728  12.3461  14.0246  17.4335  21.1444  28.5479
    30.3169  35.3672

          k =-0.1311-0.3059 0.7428 (   476 PWs)   bands (ev):

    10.0575  10.5282  11.3076  12.8607  14.1838  19.5484  21.7579  24.3284
    28.2880  36.7134

          k =-0.8302 0.2185 0.2185 (   473 PWs)   bands (ev):

     9.6441  10.6449  11.7541  12.5162  14.1740  19.1350  19.7678  27.0577
    30.9156  33.7345

          k = 0.3059 0.3059 0.3059 (   471 PWs)   bands (ev):

     8.6133  11.3710  11.3710  14.1506  14.1506  14.3064  20.4334  31.8692
    34.5907  34.5907

          k =-0.3059-0.3059 0.9176 (   472 PWs)   bands (ev):

     9.0225  11.1000  11.6525  12.8032  14.1178  16.9019  19.5345  30.9428
    32.8239  33.5969

     the Fermi energy is    16.1536 ev

!    total energy              =     -66.87405079 Ry
     estimated scf accuracy    <          7.4E-11 Ry
     smearing contrib. (-TS)   =       0.00003646 Ry
     internal energy E=F+TS    =     -66.87408725 Ry

     The total energy is F=E-TS. E is the sum of the following terms:
     one-electron contribution =       9.02694049 Ry
     hartree contribution      =       7.12297666 Ry
     xc contribution           =     -10.46251814 Ry
     ewald contribution        =     -72.56148626 Ry

     convergence has been achieved in   7 iterations


     Computing stress (Cartesian axis) and pressure

          total   stress  (Ry/bohr**3)                   (kbar)     P=       -0.27
  -0.00000186   0.00000000   0.00000000           -0.27        0.00        0.00
   0.00000000  -0.00000186   0.00000000            0.00       -0.27        0.00
   0.00000000   0.00000000  -0.00000186            0.00        0.00       -0.27

     Message from routine punch:
     Nothing written, as per user request (disk_io='none')

     init_run     :      1.35s CPU      1.90s WALL (       2 calls)
     electrons    :     12.59s CPU     13.74s WALL (       4 calls)
     update_pot   :      0.00s CPU      0.01s WALL (       2 calls)
     stress       :      0.95s CPU      0.97s WALL (       4 calls)

     Called by init_run:
     wfcinit      :      0.31s CPU      0.37s WALL (       2 calls)
     potinit      :      0.20s CPU      0.21s WALL (       2 calls)
     hinit0       :      0.77s CPU      1.15s WALL (       2 calls)

     Called by electrons:
     c_bands      :     10.36s CPU     11.34s WALL (      21 calls)
     sum_band     :      1.92s CPU      2.09s WALL (      21 calls)
     v_of_rho     :      0.03s CPU      0.04s WALL (      22 calls)
     newd         :      0.28s CPU      0.29s WALL (      22 calls)
     mix_rho      :      0.01s CPU      0.01s WALL (      21 calls)

     Called by c_bands:
     init_us_2    :      0.20s CPU      0.22s WALL (    2880 calls)
     cegterg      :     10.02s CPU     10.96s WALL (    1260 calls)

     Called by *egterg:
     cdiaghg      :      0.65s CPU      0.72s WALL (    4129 calls)
     h_psi        :      8.81s CPU      9.67s WALL (    4549 calls)
     s_psi        :      0.06s CPU      0.07s WALL (    4549 calls)
     g_psi        :      0.03s CPU      0.03s WALL (    3169 calls)

     Called by h_psi:
     h_psi:calbec :      0.25s CPU      0.27s WALL (    4549 calls)
     vloc_psi     :      8.42s CPU      9.23s WALL (    4549 calls)
     add_vuspsi   :      0.08s CPU      0.09s WALL (    4549 calls)

     General routines
     calbec       :      0.40s CPU      0.43s WALL (    8929 calls)
     fft          :      0.17s CPU      0.17s WALL (     137 calls)
     ffts         :      0.16s CPU      0.16s WALL (      43 calls)
     fftw         :      8.67s CPU      9.52s WALL (   81340 calls)
     interpolate  :      0.16s CPU      0.16s WALL (      22 calls)

     Parallel routines

     PWSCF        :     15.09s CPU     16.87s WALL


   This run was terminated on:  18: 4:18  21Oct2025            

=------------------------------------------------------------------------------=
   JOB DONE.
=------------------------------------------------------------------------------=
