
     Program PWSCF v.7.4.1 starts on 21Oct2025 at 17:32:47 

     This program is part of the open-source Quantum ESPRESSO suite
     for quantum simulation of materials; please cite
         "P. Giannozzi et al., J. Phys.:Condens. Matter 21 395502 (2009);
         "P. Giannozzi et al., J. Phys.:Condens. Matter 29 465901 (2017);
         "P. Giannozzi et al., J. Chem. Phys. 152 154105 (2020);
          URL http://www.quantum-espresso.org", 
     in publications or presentations arising from this work. More details at
     http://www.quantum-espresso.org/quote

     Parallel version (MPI), running on     2 processors

     MPI processes distributed on     1 nodes
     134 MiB available memory on the printing compute node when the environment starts

     Waiting for input...
     Reading input from standard input

     Current dimensions of program PWSCF are:
     Max number of different atomic species (ntypx) = 10
     Max number of k-points (npk) =  40000
     Max angular momentum in pseudopotentials (lmaxx) =  4
     file Cu.pz-d-rrkjus.UPF: wavefunction(s)  3D renormalized
     Message from routine setup:
     using ibrav=0 with symmetry is DISCOURAGED, use correct ibrav instead

     R & G space division:  proc/nbgrp/npool/nimage =       2
     Subspace diagonalization in iterative solution of the eigenvalue problem:
     a serial algorithm will be used


     Parallelization info
     --------------------
     sticks:   dense  smooth     PW     G-vecs:    dense   smooth      PW
     Min         255     126     45                 3815     1365     280
     Max         256     127     46                 3816     1368     281
     Sum         511     253     91                 7631     2733     561

     Using Slab Decomposition



     bravais-lattice index     =            0
     lattice parameter (alat)  =       4.8105  a.u.
     unit-cell volume          =      78.7126 (a.u.)^3
     number of atoms/cell      =            1
     number of atomic types    =            1
     number of electrons       =        11.00
     number of Kohn-Sham states=           10
     kinetic-energy cutoff     =      40.0000  Ry
     charge density cutoff     =     320.0000  Ry
     scf convergence threshold =      1.0E-07
     mixing beta               =       0.7000
     number of iterations used =            8  plain     mixing
     energy convergence thresh.=      1.0E-04
     force convergence thresh. =      1.0E-03
     press convergence thresh. =      5.0E-01
     Exchange-correlation=  SLA  PZ   NOGX NOGC
                           (   1   1   0   0   0   0   0)
     nstep                     =           50


     celldm(1)=   4.810457  celldm(2)=   0.000000  celldm(3)=   0.000000
     celldm(4)=   0.000000  celldm(5)=   0.000000  celldm(6)=   0.000000

     crystal axes: (cart. coord. in units of alat)
               a(1) = (   0.000000   0.707107   0.707107 )  
               a(2) = (   0.707107   0.000000   0.707107 )  
               a(3) = (   0.707107   0.707107   0.000000 )  

     reciprocal axes: (cart. coord. in units 2 pi/alat)
               b(1) = ( -0.707107  0.707107  0.707107 )  
               b(2) = (  0.707107 -0.707107  0.707107 )  
               b(3) = (  0.707107  0.707107 -0.707107 )  


     PseudoPot. # 1 for Cu read from file:
     /home/bond/Software/QE/qe-7.4.1/pseudo/Cu.pz-d-rrkjus.UPF
     MD5 check sum: fd38ae683e239c95a66f426e1f8e5fc7
     Pseudo is Ultrasoft, Zval = 11.0
     Generated by new atomic code, or converted to UPF format
     Using radial grid of  899 points,  3 beta functions with: 
                l(1) =   2
                l(2) =   2
                l(3) =   1
     Q(r) pseudized with 0 coefficients 


     atomic species   valence    mass     pseudopotential
     Cu               11.00    63.54600     Cu( 1.00)

     48 Sym. Ops., with inversion, found



   Cartesian axes

     site n.     atom                  positions (alat units)
         1        Cu     tau(   1) = (   0.0000000   0.0000000   0.0000000  )

     number of k points=    19  Methfessel-Paxton smearing, width (Ry)=  0.0200
                       cart. coord. in units 2pi/alat
        k(    1) = (   0.0707107   0.0707107   0.0707107), wk =   0.0320000
        k(    2) = (   0.2121320   0.2121320  -0.0707107), wk =   0.0960000
        k(    3) = (  -0.3535534  -0.3535534   0.4949747), wk =   0.0960000
        k(    4) = (  -0.2121320  -0.2121320   0.3535534), wk =   0.0960000
        k(    5) = (  -0.0707107  -0.0707107   0.2121320), wk =   0.0960000
        k(    6) = (   0.3535534   0.0707107   0.0707107), wk =   0.0960000
        k(    7) = (  -0.2121320  -0.4949747   0.6363961), wk =   0.1920000
        k(    8) = (  -0.0707107  -0.3535534   0.4949747), wk =   0.1920000
        k(    9) = (   0.0707107  -0.2121320   0.3535534), wk =   0.1920000
        k(   10) = (  -0.7778175   0.0707107   0.0707107), wk =   0.0960000
        k(   11) = (  -0.6363961   0.2121320  -0.0707107), wk =   0.1920000
        k(   12) = (  -0.4949747   0.3535534  -0.2121320), wk =   0.0960000
        k(   13) = (  -0.4949747   0.0707107   0.0707107), wk =   0.0960000
        k(   14) = (   0.2121320   0.2121320   0.2121320), wk =   0.0320000
        k(   15) = (  -0.3535534  -0.3535534   0.7778175), wk =   0.0960000
        k(   16) = (  -0.2121320  -0.2121320   0.6363961), wk =   0.0960000
        k(   17) = (  -0.9192388   0.2121320   0.2121320), wk =   0.0960000
        k(   18) = (  -0.7778175   0.3535534   0.0707107), wk =   0.0960000
        k(   19) = (  -0.3535534  -0.3535534  -0.3535534), wk =   0.0160000

     Dense  grid:     7631 G-vectors     FFT dimensions: (  27,  27,  27)

     Smooth grid:     2733 G-vectors     FFT dimensions: (  20,  20,  20)

     Estimated max dynamical RAM per process >      10.68 MB

     Estimated total dynamical RAM >      21.36 MB

     Initial potential from superposition of free atoms

     starting charge      10.9997, renormalised to      11.0000
     Starting wfcs are    6 randomized atomic wfcs +    4 random wfcs

     total cpu time spent up to now is        0.6 secs

     Self-consistent Calculation

     iteration #  1     ecut=    40.00 Ry     beta= 0.70
     Davidson diagonalization with overlap
     ethr =  1.00E-02,  avg # of iterations =  5.9

     total cpu time spent up to now is        0.8 secs

     total energy              =     -87.72868323 Ry
     estimated scf accuracy    <       0.24354301 Ry

     iteration #  2     ecut=    40.00 Ry     beta= 0.70
     Davidson diagonalization with overlap
     ethr =  2.21E-03,  avg # of iterations =  2.0

     total cpu time spent up to now is        0.9 secs

     total energy              =     -87.81029896 Ry
     estimated scf accuracy    <       0.19887538 Ry

     iteration #  3     ecut=    40.00 Ry     beta= 0.70
     Davidson diagonalization with overlap
     ethr =  1.81E-03,  avg # of iterations =  1.1

     total cpu time spent up to now is        1.0 secs

     total energy              =     -87.84212691 Ry
     estimated scf accuracy    <       0.00105063 Ry

     iteration #  4     ecut=    40.00 Ry     beta= 0.70
     Davidson diagonalization with overlap
     ethr =  9.55E-06,  avg # of iterations =  2.8

     total cpu time spent up to now is        1.1 secs

     total energy              =     -87.84252208 Ry
     estimated scf accuracy    <       0.00003056 Ry

     iteration #  5     ecut=    40.00 Ry     beta= 0.70
     Davidson diagonalization with overlap
     ethr =  2.78E-07,  avg # of iterations =  1.3

     total cpu time spent up to now is        1.2 secs

     total energy              =     -87.84251959 Ry
     estimated scf accuracy    <       0.00000842 Ry

     iteration #  6     ecut=    40.00 Ry     beta= 0.70
     Davidson diagonalization with overlap
     ethr =  7.65E-08,  avg # of iterations =  1.1

     total cpu time spent up to now is        1.3 secs

     End of self-consistent calculation

          k = 0.0707 0.0707 0.0707 (   332 PWs)   bands (ev):

     4.9781  10.6047  10.7442  10.7442  11.4997  11.4997  34.6196  38.3349
    38.8464  38.8464

          k = 0.2121 0.2121-0.0707 (   331 PWs)   bands (ev):

     6.7788  10.3346  10.8335  10.9586  11.3646  11.8466  27.7020  32.0984
    39.3315  40.4848

          k =-0.3536-0.3536 0.4950 (   338 PWs)   bands (ev):

     8.7986  10.5627  10.7713  11.2286  11.9694  13.3572  19.1224  31.9359
    35.6468  36.2468

          k =-0.2121-0.2121 0.3536 (   337 PWs)   bands (ev):

     8.4785  10.5814  10.7152  10.8517  12.0377  12.3849  21.5406  33.7210
    34.4094  35.7394

          k =-0.0707-0.0707 0.2121 (   328 PWs)   bands (ev):

     5.9158  10.3763  10.9038  10.9243  11.3363  11.6396  31.1890  34.9461
    36.1756  39.5331

          k = 0.3536 0.0707 0.0707 (   331 PWs)   bands (ev):

     7.5519   9.9835  10.8793  11.2623  11.6385  11.8600  28.3811  31.6052
    33.0139  34.7503

          k =-0.2121-0.4950 0.6364 (   334 PWs)   bands (ev):

     9.2521   9.8285  10.5846  11.5004  11.9919  14.0089  22.9813  27.3521
    27.9615  36.9727

          k =-0.0707-0.3536 0.4950 (   338 PWs)   bands (ev):

     9.6589  10.0045  10.3634  11.3152  11.9229  15.7164  20.3314  25.1196
    29.4154  38.2336

          k = 0.0707-0.2121 0.3536 (   334 PWs)   bands (ev):

     8.2146  10.1278  10.6218  11.1489  11.6179  12.4286  24.9583  29.3645
    33.9958  38.2893

          k =-0.7778 0.0707 0.0707 (   338 PWs)   bands (ev):

     8.9487   9.3597  11.8336  11.9624  12.2042  15.3275  22.3180  25.1505
    27.8011  32.9326

          k =-0.6364 0.2121-0.0707 (   339 PWs)   bands (ev):

     9.3274   9.6265  10.9648  11.7087  12.1716  16.8935  21.8374  22.9625
    26.3833  36.3318

          k =-0.4950 0.3536-0.2121 (   342 PWs)   bands (ev):

     9.1935  10.2816  10.8605  10.9791  12.0639  15.2264  18.1421  30.0441
    30.4805  37.5486

          k =-0.4950 0.0707 0.0707 (   331 PWs)   bands (ev):

     8.8070   9.5955  11.2766  11.6685  12.0745  12.8107  26.2748  27.1389
    29.1399  33.4634

          k = 0.2121 0.2121 0.2121 (   338 PWs)   bands (ev):

     7.4752  10.5552  10.7985  10.7985  11.7387  11.7387  24.2082  36.8649
    36.8649  37.0569

          k =-0.3536-0.3536 0.7778 (   335 PWs)   bands (ev):

     9.0863  10.3340  10.4175  11.0856  11.6360  13.5429  22.2642  26.8387
    34.8874  36.3072

          k =-0.2121-0.2121 0.6364 (   341 PWs)   bands (ev):

     9.5477   9.8003  10.7116  11.4552  12.0188  17.6869  18.8633  23.6321
    30.3636  34.1098

          k =-0.9192 0.2121 0.2121 (   337 PWs)   bands (ev):

     9.2239  10.1233  10.6932  11.1136  12.1351  14.6109  19.6962  28.6635
    31.5097  34.5379

          k =-0.7778 0.3536 0.0707 (   338 PWs)   bands (ev):

     9.6607  10.0340  10.2596  11.4750  12.1617  18.7730  19.4844  24.0625
    24.4800  41.1079

          k =-0.3536-0.3536-0.3536 (   344 PWs)   bands (ev):

     8.6745  10.6455  10.6455  12.1071  12.1071  12.9335  17.8415  36.0821
    36.4366  36.4366

     the Fermi energy is    13.9332 ev

!    total energy              =     -87.84252108 Ry
     estimated scf accuracy    <       0.00000001 Ry
     smearing contrib. (-TS)   =      -0.00028517 Ry
     internal energy E=F+TS    =     -87.84223592 Ry

     The total energy is F=E-TS. E is the sum of the following terms:
     one-electron contribution =     -11.59984246 Ry
     hartree contribution      =      19.34237379 Ry
     xc contribution           =     -14.03733738 Ry
     ewald contribution        =     -81.54742986 Ry

     convergence has been achieved in   6 iterations


     Computing stress (Cartesian axis) and pressure

          total   stress  (Ry/bohr**3)                   (kbar)     P=      -65.38
  -0.00044447   0.00000000   0.00000000          -65.38        0.00        0.00
   0.00000000  -0.00044447   0.00000000            0.00      -65.38        0.00
   0.00000000   0.00000000  -0.00044447            0.00        0.00      -65.38


     BFGS Geometry Optimization
     Energy error            =      1.2E-03 Ry
     Gradient error          =      0.0E+00 Ry/Bohr
     Cell gradient error     =      6.5E+01 kbar

     number of scf cycles    =   1
     number of bfgs steps    =   0

     enthalpy           new  =     -87.8425210827 Ry

     new trust radius        =       0.0197167822 bohr
     new conv_thr            =       0.0000001000 Ry

     new unit-cell volume =     76.11771 a.u.^3 (    11.27948 Ang^3 )
     density =      9.35510 g/cm^3

CELL_PARAMETERS (angstrom)
   0.000000000   1.779998780   1.779998780
   1.779998780   0.000000000   1.779998780
   1.779998780   1.779998780   0.000000000

ATOMIC_POSITIONS (angstrom)
Cu               0.0000000000        0.0000000000        0.0000000000    0   0   0


     Message from routine punch:
     Nothing written, as per user request (disk_io='none')
     NEW-OLD atomic charge density approx. for the potential
     New effective cutoffs (rho, wfc):  324.49   40.85

     total cpu time spent up to now is        1.5 secs

     Self-consistent Calculation

     iteration #  1     ecut=    40.00 Ry     beta= 0.70
     Davidson diagonalization with overlap
     ethr =  1.00E-06,  avg # of iterations =  3.9

     total cpu time spent up to now is        1.7 secs

     total energy              =     -87.84319779 Ry
     estimated scf accuracy    <       0.00001523 Ry

     iteration #  2     ecut=    40.00 Ry     beta= 0.70
     Davidson diagonalization with overlap
     ethr =  1.38E-07,  avg # of iterations =  1.9

     total cpu time spent up to now is        1.8 secs

     total energy              =     -87.84320102 Ry
     estimated scf accuracy    <       0.00000911 Ry

     iteration #  3     ecut=    40.00 Ry     beta= 0.70
     Davidson diagonalization with overlap
     ethr =  8.29E-08,  avg # of iterations =  1.1

     total cpu time spent up to now is        1.9 secs

     total energy              =     -87.84320299 Ry
     estimated scf accuracy    <       0.00000013 Ry

     iteration #  4     ecut=    40.00 Ry     beta= 0.70
     Davidson diagonalization with overlap
     ethr =  1.14E-09,  avg # of iterations =  1.4

     total cpu time spent up to now is        2.0 secs

     End of self-consistent calculation

          k = 0.0715 0.0715 0.0715 (   332 PWs)   bands (ev):

     5.3785  11.1389  11.2862  11.2862  12.0823  12.0823  35.7062  39.4176
    40.0803  40.0803

          k = 0.2145 0.2145-0.0715 (   331 PWs)   bands (ev):

     7.2183  10.8527  11.3791  11.5117  11.9391  12.4471  28.6701  33.1560
    40.4520  41.8426

          k =-0.3575-0.3575 0.5005 (   338 PWs)   bands (ev):

     9.2573  11.0927  11.3137  11.7785  12.5767  13.9850  19.9486  32.9824
    36.8254  37.3244

          k =-0.2145-0.2145 0.3575 (   337 PWs)   bands (ev):

     8.9370  11.1082  11.2507  11.3986  12.6488  12.9999  22.3987  34.8407
    35.4319  36.9202

          k =-0.0715-0.0715 0.2145 (   328 PWs)   bands (ev):

     6.3377  10.8976  11.4538  11.4756  11.9095  12.2297  32.2227  36.0905
    37.2467  40.6764

          k = 0.3575 0.0715 0.0715 (   331 PWs)   bands (ev):

     8.0032  10.4833  11.4274  11.8313  12.2262  12.4618  29.3597  32.6639
    34.0358  35.8806

          k =-0.2145-0.5005 0.6435 (   334 PWs)   bands (ev):

     9.7226  10.3186  11.1166  12.0810  12.5999  14.6756  23.8505  28.2878
    28.9726  38.1252

          k =-0.0715-0.3575 0.5005 (   338 PWs)   bands (ev):

    10.1468  10.5004  10.8811  11.8859  12.5275  16.4205  21.1513  26.0456
    30.4295  39.4070

          k = 0.0715-0.2145 0.3575 (   334 PWs)   bands (ev):

     8.6775  10.6342  11.1552  11.7115  12.2052  13.0549  25.8727  30.3665
    35.0917  39.4768

          k =-0.7866 0.0715 0.0715 (   338 PWs)   bands (ev):

     9.3957   9.8270  12.4281  12.5692  12.8242  15.9836  23.2073  26.0561
    28.7511  34.0034

          k =-0.6435 0.2145-0.0715 (   339 PWs)   bands (ev):

     9.7909  10.1070  11.5128  12.3008  12.7897  17.6063  22.6621  23.8725
    27.3287  37.4722

          k =-0.5005 0.3575-0.2145 (   342 PWs)   bands (ev):

     9.6634  10.7932  11.3984  11.5323  12.6763  15.8814  18.9626  31.0177
    31.5555  38.6931

          k =-0.5005 0.0715 0.0715 (   331 PWs)   bands (ev):

     9.2621  10.0748  11.8424  12.2591  12.6877  13.4367  27.1952  28.1106
    30.1299  34.5431

          k = 0.2145 0.2145 0.2145 (   338 PWs)   bands (ev):

     7.9237  11.0812  11.3429  11.3429  12.3335  12.3335  25.1138  38.0696
    38.0746  38.0746

          k =-0.3575-0.3575 0.7866 (   335 PWs)   bands (ev):

     9.5620  10.8489  10.9378  11.6445  12.2252  14.2044  23.1265  27.7956
    36.0395  37.4084

          k =-0.2145-0.2145 0.6435 (   341 PWs)   bands (ev):

    10.0267  10.2857  11.2464  12.0338  12.6287  18.4075  19.6630  24.5434
    31.3902  35.2035

          k =-0.9296 0.2145 0.2145 (   337 PWs)   bands (ev):

     9.6947  10.6247  11.2283  11.6741  12.7514  15.2780  20.5193  29.6499
    32.5680  35.6344

          k =-0.7866 0.3575 0.0715 (   338 PWs)   bands (ev):

    10.1379  10.5363  10.7721  12.0547  12.7793  19.5207  20.2878  24.9196
    25.4535  42.3501

          k =-0.3575-0.3575-0.3575 (   344 PWs)   bands (ev):

     9.1260  11.1813  11.1813  12.7219  12.7219  13.4838  18.6670  37.0553
    37.6533  37.6533

     the Fermi energy is    14.6005 ev

!    total energy              =     -87.84320300 Ry
     estimated scf accuracy    <          1.7E-10 Ry
     smearing contrib. (-TS)   =      -0.00029869 Ry
     internal energy E=F+TS    =     -87.84290431 Ry

     The total energy is F=E-TS. E is the sum of the following terms:
     one-electron contribution =     -10.19511470 Ry
     hartree contribution      =      18.87211579 Ry
     xc contribution           =     -14.05615575 Ry
     ewald contribution        =     -82.46374965 Ry

     convergence has been achieved in   4 iterations


     Computing stress (Cartesian axis) and pressure

          total   stress  (Ry/bohr**3)                   (kbar)     P=      -12.01
  -0.00008167   0.00000000   0.00000000          -12.01        0.00        0.00
   0.00000000  -0.00008167   0.00000000            0.00      -12.01        0.00
   0.00000000   0.00000000  -0.00008167            0.00        0.00      -12.01

     Energy error            =      6.8E-04 Ry
     Gradient error          =      0.0E+00 Ry/Bohr
     Cell gradient error     =      1.2E+01 kbar

     number of scf cycles    =   2
     number of bfgs steps    =   1

     enthalpy           old  =     -87.8425210827 Ry
     enthalpy           new  =     -87.8432030001 Ry

     CASE: enthalpy          _new < enthalpy          _old

     new trust radius        =       0.0042950164 bohr
     new conv_thr            =       0.0000000010 Ry

     new unit-cell volume =     75.55701 a.u.^3 (    11.19639 Ang^3 )
     density =      9.42452 g/cm^3

CELL_PARAMETERS (angstrom)
   0.000000000   1.775617392   1.775617392
   1.775617392   0.000000000   1.775617392
   1.775617392   1.775617392   0.000000000

ATOMIC_POSITIONS (angstrom)
Cu               0.0000000000        0.0000000000        0.0000000000    0   0   0


     Message from routine punch:
     Nothing written, as per user request (disk_io='none')
     NEW-OLD atomic charge density approx. for the potential
     New effective cutoffs (rho, wfc):  326.10   41.05

     total cpu time spent up to now is        2.2 secs

     Self-consistent Calculation

     iteration #  1     ecut=    40.00 Ry     beta= 0.70
     Davidson diagonalization with overlap
     ethr =  1.00E-06,  avg # of iterations =  3.0

     Threshold (ethr) on eigenvalues was too large:
     Diagonalizing with lowered threshold

     Davidson diagonalization with overlap
     ethr =  5.98E-09,  avg # of iterations =  1.4

     total cpu time spent up to now is        2.4 secs

     total energy              =     -87.84321873 Ry
     estimated scf accuracy    <       0.00000069 Ry

     iteration #  2     ecut=    40.00 Ry     beta= 0.70
     Davidson diagonalization with overlap
     ethr =  6.24E-09,  avg # of iterations =  1.9

     total cpu time spent up to now is        2.4 secs

     total energy              =     -87.84321887 Ry
     estimated scf accuracy    <       0.00000041 Ry

     iteration #  3     ecut=    40.00 Ry     beta= 0.70
     Davidson diagonalization with overlap
     ethr =  3.69E-09,  avg # of iterations =  1.1

     total cpu time spent up to now is        2.5 secs

     total energy              =     -87.84321895 Ry
     estimated scf accuracy    <          6.1E-09 Ry

     iteration #  4     ecut=    40.00 Ry     beta= 0.70
     Davidson diagonalization with overlap
     ethr =  5.55E-11,  avg # of iterations =  1.1

     total cpu time spent up to now is        2.6 secs

     End of self-consistent calculation

          k = 0.0717 0.0717 0.0717 (   332 PWs)   bands (ev):

     5.4691  11.2590  11.4082  11.4082  12.2136  12.2136  35.9500  39.6605
    40.3572  40.3572

          k = 0.2150 0.2150-0.0717 (   331 PWs)   bands (ev):

     7.3176  10.9692  11.5019  11.6361  12.0685  12.5824  28.8878  33.3934
    40.7036  42.1477

          k =-0.3584-0.3584 0.5018 (   338 PWs)   bands (ev):

     9.3605  11.2119  11.4358  11.9022  12.7134  14.1266  20.1349  33.2172
    37.0902  37.5666

          k =-0.2150-0.2150 0.3584 (   337 PWs)   bands (ev):

     9.0403  11.2266  11.3713  11.5216  12.7865  13.1385  22.5920  35.0923
    35.6607  37.1862

          k =-0.0717-0.0717 0.2150 (   328 PWs)   bands (ev):

     6.4331  11.0148  11.5776  11.5997  12.0385  12.3626  32.4550  36.3476
    37.4868  40.9332

          k = 0.3584 0.0717 0.0717 (   331 PWs)   bands (ev):

     8.1051  10.5957  11.5507  11.9593  12.3585  12.5973  29.5798  32.9019
    34.2648  36.1347

          k =-0.2150-0.5018 0.6451 (   334 PWs)   bands (ev):

     9.8285  10.4288  11.2363  12.2117  12.7369  14.8259  24.0461  28.4979
    29.2003  38.3841

          k =-0.0717-0.3584 0.5018 (   338 PWs)   bands (ev):

    10.2565  10.6119  10.9975  12.0143  12.6637  16.5792  21.3361  26.2538
    30.6576  39.6705

          k = 0.0717-0.2150 0.3584 (   334 PWs)   bands (ev):

     8.7819  10.7480  11.2752  11.8382  12.3375  13.1960  26.0784  30.5916
    35.3378  39.7436

          k =-0.7885 0.0717 0.0717 (   338 PWs)   bands (ev):

     9.4962   9.9320  12.5620  12.7059  12.9639  16.1315  23.4073  26.2599
    28.9647  34.2442

          k =-0.6451 0.2150-0.0717 (   339 PWs)   bands (ev):

     9.8951  10.2150  11.6361  12.4342  12.9290  17.7670  22.8476  24.0773
    27.5416  37.7284

          k =-0.5018 0.3584-0.2150 (   342 PWs)   bands (ev):

     9.7691  10.9082  11.5194  11.6568  12.8143  16.0291  19.1475  31.2365
    31.7971  38.9500

          k =-0.5018 0.0717 0.0717 (   331 PWs)   bands (ev):

     9.3645  10.1825  11.9698  12.3921  12.8259  13.5778  27.4020  28.3291
    30.3525  34.7859

          k = 0.2150 0.2150 0.2150 (   338 PWs)   bands (ev):

     8.0249  11.1996  11.4654  11.4654  12.4675  12.4675  25.3176  38.2966
    38.3464  38.3464

          k =-0.3584-0.3584 0.7885 (   335 PWs)   bands (ev):

     9.6691  10.9647  11.0548  11.7703  12.3578  14.3535  23.3207  28.0108
    36.2984  37.6557

          k =-0.2150-0.2150 0.6451 (   341 PWs)   bands (ev):

    10.1343  10.3948  11.3668  12.1640  12.7661  18.5700  19.8431  24.7485
    31.6210  35.4493

          k =-0.9319 0.2150 0.2150 (   337 PWs)   bands (ev):

     9.8006  10.7374  11.3487  11.8003  12.8903  15.4284  20.7047  29.8715
    32.8060  35.8809

          k =-0.7885 0.3584 0.0717 (   338 PWs)   bands (ev):

    10.2451  10.6493  10.8873  12.1852  12.9184  19.6893  20.4686  25.1125
    25.6726  42.6290

          k =-0.3584-0.3584-0.3584 (   344 PWs)   bands (ev):

     9.2276  11.3019  11.3019  12.8604  12.8604  13.6080  18.8530  37.2736
    37.9266  37.9266

     the Fermi energy is    14.7509 ev

!    total energy              =     -87.84321896 Ry
     estimated scf accuracy    <          1.3E-11 Ry
     smearing contrib. (-TS)   =      -0.00030121 Ry
     internal energy E=F+TS    =     -87.84291775 Ry

     The total energy is F=E-TS. E is the sum of the following terms:
     one-electron contribution =      -9.88403892 Ry
     hartree contribution      =      18.76880296 Ry
     xc contribution           =     -14.06045043 Ry
     ewald contribution        =     -82.66723135 Ry

     convergence has been achieved in   4 iterations


     Computing stress (Cartesian axis) and pressure

          total   stress  (Ry/bohr**3)                   (kbar)     P=        0.64
   0.00000438  -0.00000000   0.00000000            0.64       -0.00        0.00
  -0.00000000   0.00000438  -0.00000000           -0.00        0.64       -0.00
  -0.00000000   0.00000000   0.00000438           -0.00        0.00        0.64

     Energy error            =      1.6E-05 Ry
     Gradient error          =      0.0E+00 Ry/Bohr
     Cell gradient error     =      6.4E-01 kbar

     number of scf cycles    =   3
     number of bfgs steps    =   2

     enthalpy           old  =     -87.8432030001 Ry
     enthalpy           new  =     -87.8432189552 Ry

     CASE: enthalpy          _new < enthalpy          _old

     new trust radius        =       0.0002175216 bohr
     new conv_thr            =       0.0000000010 Ry

     new unit-cell volume =     75.58538 a.u.^3 (    11.20060 Ang^3 )
     density =      9.42098 g/cm^3

CELL_PARAMETERS (angstrom)
   0.000000000   1.775839562   1.775839562
   1.775839562   0.000000000   1.775839562
   1.775839562   1.775839562   0.000000000

ATOMIC_POSITIONS (angstrom)
Cu               0.0000000000        0.0000000000        0.0000000000    0   0   0


     Message from routine punch:
     Nothing written, as per user request (disk_io='none')
     NEW-OLD atomic charge density approx. for the potential
     New effective cutoffs (rho, wfc):  326.01   41.04

     total cpu time spent up to now is        2.7 secs

     Self-consistent Calculation

     iteration #  1     ecut=    40.00 Ry     beta= 0.70
     Davidson diagonalization with overlap
     ethr =  1.00E-06,  avg # of iterations =  2.0

     Threshold (ethr) on eigenvalues was too large:
     Diagonalizing with lowered threshold

     Davidson diagonalization with overlap
     ethr =  1.78E-11,  avg # of iterations =  2.1

     total cpu time spent up to now is        2.9 secs

     total energy              =     -87.84322185 Ry
     estimated scf accuracy    <          2.0E-09 Ry

     iteration #  2     ecut=    40.00 Ry     beta= 0.70
     Davidson diagonalization with overlap
     ethr =  1.86E-11,  avg # of iterations =  1.9

     total cpu time spent up to now is        3.0 secs

     total energy              =     -87.84322185 Ry
     estimated scf accuracy    <          1.2E-09 Ry

     iteration #  3     ecut=    40.00 Ry     beta= 0.70
     Davidson diagonalization with overlap
     ethr =  1.14E-11,  avg # of iterations =  1.1

     total cpu time spent up to now is        3.1 secs

     End of self-consistent calculation

          k = 0.0717 0.0717 0.0717 (   332 PWs)   bands (ev):

     5.4645  11.2529  11.4019  11.4019  12.2068  12.2068  35.9375  39.6482
    40.3431  40.3431

          k = 0.2150 0.2150-0.0717 (   331 PWs)   bands (ev):

     7.3126  10.9632  11.4956  11.6298  12.0618  12.5755  28.8767  33.3813
    40.6908  42.1321

          k =-0.3584-0.3584 0.5017 (   338 PWs)   bands (ev):

     9.3552  11.2058  11.4295  11.8959  12.7064  14.1193  20.1254  33.2053
    37.0767  37.5543

          k =-0.2150-0.2150 0.3584 (   337 PWs)   bands (ev):

     9.0350  11.2206  11.3651  11.5153  12.7795  13.1314  22.5821  35.0795
    35.6490  37.1727

          k =-0.0717-0.0717 0.2150 (   328 PWs)   bands (ev):

     6.4282  11.0088  11.5712  11.5933  12.0319  12.3558  32.4431  36.3345
    37.4746  40.9202

          k = 0.3584 0.0717 0.0717 (   331 PWs)   bands (ev):

     8.0999  10.5899  11.5444  11.9528  12.3517  12.5904  29.5685  32.8897
    34.2532  36.1217

          k =-0.2150-0.5017 0.6451 (   334 PWs)   bands (ev):

     9.8231  10.4231  11.2301  12.2050  12.7298  14.8182  24.0362  28.4872
    29.1887  38.3709

          k =-0.0717-0.3584 0.5017 (   338 PWs)   bands (ev):

    10.2509  10.6062  10.9915  12.0078  12.6567  16.5711  21.3266  26.2432
    30.6460  39.6571

          k = 0.0717-0.2150 0.3584 (   334 PWs)   bands (ev):

     8.7766  10.7422  11.2691  11.8317  12.3307  13.1888  26.0679  30.5802
    35.3252  39.7300

          k =-0.7884 0.0717 0.0717 (   338 PWs)   bands (ev):

     9.4910   9.9266  12.5551  12.6989  12.9568  16.1240  23.3971  26.2495
    28.9538  34.2319

          k =-0.6451 0.2150-0.0717 (   339 PWs)   bands (ev):

     9.8897  10.2095  11.6298  12.4274  12.9219  17.7588  22.8382  24.0669
    27.5307  37.7154

          k =-0.5017 0.3584-0.2150 (   342 PWs)   bands (ev):

     9.7637  10.9023  11.5132  11.6504  12.8072  16.0216  19.1381  31.2253
    31.7848  38.9370

          k =-0.5017 0.0717 0.0717 (   331 PWs)   bands (ev):

     9.3592  10.1770  11.9632  12.3853  12.8188  13.5706  27.3915  28.3180
    30.3411  34.7735

          k = 0.2150 0.2150 0.2150 (   338 PWs)   bands (ev):

     8.0198  11.1935  11.4591  11.4591  12.4606  12.4606  25.3072  38.2850
    38.3325  38.3325

          k =-0.3584-0.3584 0.7884 (   335 PWs)   bands (ev):

     9.6636  10.9588  11.0488  11.7638  12.3510  14.3459  23.3108  27.9998
    36.2852  37.6431

          k =-0.2150-0.2150 0.6451 (   341 PWs)   bands (ev):

    10.1288  10.3892  11.3606  12.1574  12.7591  18.5617  19.8339  24.7380
    31.6093  35.4368

          k =-0.9317 0.2150 0.2150 (   337 PWs)   bands (ev):

     9.7952  10.7316  11.3425  11.7938  12.8832  15.4207  20.6953  29.8602
    32.7938  35.8683

          k =-0.7884 0.3584 0.0717 (   338 PWs)   bands (ev):

    10.2397  10.6436  10.8814  12.1785  12.9113  19.6807  20.4594  25.1027
    25.6615  42.6148

          k =-0.3584-0.3584-0.3584 (   344 PWs)   bands (ev):

     9.2224  11.2957  11.2957  12.8533  12.8533  13.6016  18.8435  37.2624
    37.9127  37.9127

     the Fermi energy is    14.7432 ev

!    total energy              =     -87.84322185 Ry
     estimated scf accuracy    <          1.5E-11 Ry
     smearing contrib. (-TS)   =      -0.00030108 Ry
     internal energy E=F+TS    =     -87.84292077 Ry

     The total energy is F=E-TS. E is the sum of the following terms:
     one-electron contribution =      -9.89986107 Ry
     hartree contribution      =      18.77406790 Ry
     xc contribution           =     -14.06023847 Ry
     ewald contribution        =     -82.65688912 Ry

     convergence has been achieved in   3 iterations


     Computing stress (Cartesian axis) and pressure

          total   stress  (Ry/bohr**3)                   (kbar)     P=        0.10
   0.00000070  -0.00000000  -0.00000000            0.10       -0.00       -0.00
   0.00000000   0.00000070  -0.00000000            0.00        0.10       -0.00
  -0.00000000  -0.00000000   0.00000070           -0.00       -0.00        0.10

     Energy error            =      2.9E-06 Ry
     Gradient error          =      0.0E+00 Ry/Bohr
     Cell gradient error     =      1.0E-01 kbar

     bfgs converged in   4 scf cycles and   3 bfgs steps
     (criteria: energy <  1.0E-04 Ry, force <  1.0E-03 Ry/Bohr, cell <  5.0E-01 kbar)

     End of BFGS Geometry Optimization

     Final enthalpy           =     -87.8432218495 Ry

     File /home/bond/Work/Lab4/Problem3/Cu_nk_5/pwscf.bfgs deleted, as requested
Begin final coordinates
     new unit-cell volume =     75.58538 a.u.^3 (    11.20060 Ang^3 )
     density =      9.42098 g/cm^3

CELL_PARAMETERS (angstrom)
   0.000000000   1.775839562   1.775839562
   1.775839562   0.000000000   1.775839562
   1.775839562   1.775839562   0.000000000

ATOMIC_POSITIONS (angstrom)
Cu               0.0000000000        0.0000000000        0.0000000000    0   0   0
End final coordinates


     Message from routine punch:
     Nothing written, as per user request (disk_io='none')

     Final scf calculation at the relaxed structure.
     The G-vectors are recalculated for the final unit cell
     Results may differ from those at the preceding step.

     Parallelization info
     --------------------
     sticks:   dense  smooth     PW     G-vecs:    dense   smooth      PW
     Min         249     126     42                 3694     1318     267
     Max         250     127     43                 3697     1319     270
     Sum         499     253     85                 7391     2637     537

     Using Slab Decomposition



     bravais-lattice index     =            0
     lattice parameter (alat)  =       4.8105  a.u.
     unit-cell volume          =      75.5854 (a.u.)^3
     number of atoms/cell      =            1
     number of atomic types    =            1
     number of electrons       =        11.00
     number of Kohn-Sham states=           10
     kinetic-energy cutoff     =      40.0000  Ry
     charge density cutoff     =     320.0000  Ry
     scf convergence threshold =      1.0E-09
     mixing beta               =       0.7000
     number of iterations used =            8  plain     mixing
     press convergence thresh. =      5.0E-01
     Exchange-correlation=  SLA  PZ   NOGX NOGC
                           (   1   1   0   0   0   0   0)

     celldm(1)=   4.810457  celldm(2)=   0.000000  celldm(3)=   0.000000
     celldm(4)=   0.000000  celldm(5)=   0.000000  celldm(6)=   0.000000

     crystal axes: (cart. coord. in units of alat)
               a(1) = (   0.000000   0.697616   0.697616 )  
               a(2) = (   0.697616   0.000000   0.697616 )  
               a(3) = (   0.697616   0.697616   0.000000 )  

     reciprocal axes: (cart. coord. in units 2 pi/alat)
               b(1) = ( -0.716727  0.716727  0.716727 )  
               b(2) = (  0.716727 -0.716727  0.716727 )  
               b(3) = (  0.716727  0.716727 -0.716727 )  


     PseudoPot. # 1 for Cu read from file:
     /home/bond/Software/QE/qe-7.4.1/pseudo/Cu.pz-d-rrkjus.UPF
     MD5 check sum: fd38ae683e239c95a66f426e1f8e5fc7
     Pseudo is Ultrasoft, Zval = 11.0
     Generated by new atomic code, or converted to UPF format
     Using radial grid of  899 points,  3 beta functions with: 
                l(1) =   2
                l(2) =   2
                l(3) =   1
     Q(r) pseudized with 0 coefficients 


     atomic species   valence    mass     pseudopotential
     Cu               11.00    63.54600     Cu( 1.00)

     48 Sym. Ops., with inversion, found



   Cartesian axes

     site n.     atom                  positions (alat units)
         1        Cu     tau(   1) = (   0.0000000   0.0000000   0.0000000  )

     number of k points=    19  Methfessel-Paxton smearing, width (Ry)=  0.0200
                       cart. coord. in units 2pi/alat
        k(    1) = (   0.0716727   0.0716727   0.0716727), wk =   0.0320000
        k(    2) = (   0.2150181   0.2150181  -0.0716727), wk =   0.0960000
        k(    3) = (  -0.3583635  -0.3583635   0.5017089), wk =   0.0960000
        k(    4) = (  -0.2150181  -0.2150181   0.3583635), wk =   0.0960000
        k(    5) = (  -0.0716727  -0.0716727   0.2150181), wk =   0.0960000
        k(    6) = (   0.3583635   0.0716727   0.0716727), wk =   0.0960000
        k(    7) = (  -0.2150181  -0.5017089   0.6450543), wk =   0.1920000
        k(    8) = (  -0.0716727  -0.3583635   0.5017089), wk =   0.1920000
        k(    9) = (   0.0716727  -0.2150181   0.3583635), wk =   0.1920000
        k(   10) = (  -0.7883997   0.0716727   0.0716727), wk =   0.0960000
        k(   11) = (  -0.6450543   0.2150181  -0.0716727), wk =   0.1920000
        k(   12) = (  -0.5017089   0.3583635  -0.2150181), wk =   0.0960000
        k(   13) = (  -0.5017089   0.0716727   0.0716727), wk =   0.0960000
        k(   14) = (   0.2150181   0.2150181   0.2150181), wk =   0.0320000
        k(   15) = (  -0.3583635  -0.3583635   0.7883997), wk =   0.0960000
        k(   16) = (  -0.2150181  -0.2150181   0.6450543), wk =   0.0960000
        k(   17) = (  -0.9317451   0.2150181   0.2150181), wk =   0.0960000
        k(   18) = (  -0.7883997   0.3583635   0.0716727), wk =   0.0960000
        k(   19) = (  -0.3583635  -0.3583635  -0.3583635), wk =   0.0160000

     Dense  grid:     7391 G-vectors     FFT dimensions: (  27,  27,  27)

     Smooth grid:     2637 G-vectors     FFT dimensions: (  20,  20,  20)

     Estimated max dynamical RAM per process >      10.41 MB

     Estimated total dynamical RAM >      20.82 MB

     Initial potential from superposition of free atoms

     starting charge      10.9997, renormalised to      11.0000
     Starting wfcs are    6 randomized atomic wfcs +    4 random wfcs

     total cpu time spent up to now is        3.4 secs

     Self-consistent Calculation

     iteration #  1     ecut=    40.00 Ry     beta= 0.70
     Davidson diagonalization with overlap
     ethr =  1.00E-06,  avg # of iterations = 13.9

     total cpu time spent up to now is        3.6 secs

     total energy              =     -87.73276975 Ry
     estimated scf accuracy    <       0.24097250 Ry

     iteration #  2     ecut=    40.00 Ry     beta= 0.70
     Davidson diagonalization with overlap
     ethr =  2.19E-03,  avg # of iterations =  2.0

     total cpu time spent up to now is        3.7 secs

     total energy              =     -87.81327899 Ry
     estimated scf accuracy    <       0.18235318 Ry

     iteration #  3     ecut=    40.00 Ry     beta= 0.70
     Davidson diagonalization with overlap
     ethr =  1.66E-03,  avg # of iterations =  1.1

     total cpu time spent up to now is        3.8 secs

     total energy              =     -87.84287619 Ry
     estimated scf accuracy    <       0.00085327 Ry

     iteration #  4     ecut=    40.00 Ry     beta= 0.70
     Davidson diagonalization with overlap
     ethr =  7.76E-06,  avg # of iterations =  2.0

     total cpu time spent up to now is        3.9 secs

     total energy              =     -87.84321092 Ry
     estimated scf accuracy    <       0.00002735 Ry

     iteration #  5     ecut=    40.00 Ry     beta= 0.70
     Davidson diagonalization with overlap
     ethr =  2.49E-07,  avg # of iterations =  1.1

     total cpu time spent up to now is        4.0 secs

     total energy              =     -87.84321027 Ry
     estimated scf accuracy    <       0.00000722 Ry

     iteration #  6     ecut=    40.00 Ry     beta= 0.70
     Davidson diagonalization with overlap
     ethr =  6.56E-08,  avg # of iterations =  1.1

     total cpu time spent up to now is        4.1 secs

     total energy              =     -87.84321155 Ry
     estimated scf accuracy    <       0.00000001 Ry

     iteration #  7     ecut=    40.00 Ry     beta= 0.70
     Davidson diagonalization with overlap
     ethr =  1.30E-10,  avg # of iterations =  2.4

     total cpu time spent up to now is        4.2 secs

     End of self-consistent calculation

          k = 0.0717 0.0717 0.0717 (   329 PWs)   bands (ev):

     5.4645  11.2530  11.4020  11.4020  12.2069  12.2069  35.9376  39.6481
    40.3431  40.3431

          k = 0.2150 0.2150-0.0717 (   320 PWs)   bands (ev):

     7.3126  10.9633  11.4957  11.6299  12.0620  12.5756  28.8768  33.3814
    40.6908  42.1321

          k =-0.3584-0.3584 0.5017 (   326 PWs)   bands (ev):

     9.3553  11.2059  11.4296  11.8960  12.7066  14.1194  20.1254  33.2053
    37.0768  37.5543

          k =-0.2150-0.2150 0.3584 (   328 PWs)   bands (ev):

     9.0351  11.2207  11.3652  11.5154  12.7796  13.1314  22.5821  35.0796
    35.6491  37.1727

          k =-0.0717-0.0717 0.2150 (   319 PWs)   bands (ev):

     6.4282  11.0089  11.5713  11.5934  12.0320  12.3559  32.4432  36.3346
    37.4746  40.9203

          k = 0.3584 0.0717 0.0717 (   322 PWs)   bands (ev):

     8.0999  10.5900  11.5445  11.9529  12.3518  12.5905  29.5686  32.8898
    34.2533  36.1218

          k =-0.2150-0.5017 0.6451 (   324 PWs)   bands (ev):

     9.8232  10.4232  11.2302  12.2052  12.7300  14.8183  24.0362  28.4872
    29.1887  38.3710

          k =-0.0717-0.3584 0.5017 (   324 PWs)   bands (ev):

    10.2510  10.6062  10.9916  12.0079  12.6568  16.5711  21.3267  26.2432
    30.6460  39.6572

          k = 0.0717-0.2150 0.3584 (   321 PWs)   bands (ev):

     8.7766  10.7423  11.2692  11.8318  12.3308  13.1889  26.0679  30.5802
    35.3254  39.7301

          k =-0.7884 0.0717 0.0717 (   328 PWs)   bands (ev):

     9.4911   9.9267  12.5552  12.6990  12.9569  16.1240  23.3972  26.2495
    28.9538  34.2320

          k =-0.6451 0.2150-0.0717 (   320 PWs)   bands (ev):

     9.8898  10.2096  11.6299  12.4275  12.9220  17.7589  22.8382  24.0669
    27.5308  37.7155

          k =-0.5017 0.3584-0.2150 (   326 PWs)   bands (ev):

     9.7638  10.9024  11.5133  11.6506  12.8074  16.0216  19.1381  31.2254
    31.7849  38.9370

          k =-0.5017 0.0717 0.0717 (   321 PWs)   bands (ev):

     9.3593  10.1771  11.9633  12.3854  12.8189  13.5707  27.3915  28.3180
    30.3412  34.7736

          k = 0.2150 0.2150 0.2150 (   317 PWs)   bands (ev):

     8.0198  11.1936  11.4592  11.4592  12.4607  12.4607  25.3072  38.2850
    38.3327  38.3327

          k =-0.3584-0.3584 0.7884 (   319 PWs)   bands (ev):

     9.6637  10.9589  11.0489  11.7639  12.3512  14.3460  23.3108  27.9998
    36.2854  37.6432

          k =-0.2150-0.2150 0.6451 (   324 PWs)   bands (ev):

    10.1289  10.3893  11.3607  12.1575  12.7592  18.5618  19.8339  24.7381
    31.6093  35.4369

          k =-0.9317 0.2150 0.2150 (   323 PWs)   bands (ev):

     9.7953  10.7317  11.3426  11.7940  12.8833  15.4208  20.6953  29.8602
    32.7939  35.8684

          k =-0.7884 0.3584 0.0717 (   324 PWs)   bands (ev):

    10.2397  10.6437  10.8815  12.1786  12.9114  19.6807  20.4594  25.1027
    25.6615  42.6149

          k =-0.3584-0.3584-0.3584 (   332 PWs)   bands (ev):

     9.2225  11.2958  11.2958  12.8534  12.8534  13.6016  18.8435  37.2624
    37.9127  37.9127

     the Fermi energy is    14.7432 ev

!    total energy              =     -87.84321155 Ry
     estimated scf accuracy    <          6.6E-11 Ry
     smearing contrib. (-TS)   =      -0.00030107 Ry
     internal energy E=F+TS    =     -87.84291048 Ry

     The total energy is F=E-TS. E is the sum of the following terms:
     one-electron contribution =      -9.89985767 Ry
     hartree contribution      =      18.77409074 Ry
     xc contribution           =     -14.06025443 Ry
     ewald contribution        =     -82.65688912 Ry

     convergence has been achieved in   7 iterations


     Computing stress (Cartesian axis) and pressure

          total   stress  (Ry/bohr**3)                   (kbar)     P=       -0.14
  -0.00000096   0.00000000   0.00000000           -0.14        0.00        0.00
   0.00000000  -0.00000096   0.00000000            0.00       -0.14        0.00
   0.00000000   0.00000000  -0.00000096            0.00        0.00       -0.14

     Message from routine punch:
     Nothing written, as per user request (disk_io='none')

     init_run     :      0.62s CPU      0.65s WALL (       2 calls)
     electrons    :      2.68s CPU      2.91s WALL (       5 calls)
     update_pot   :      0.01s CPU      0.01s WALL (       3 calls)
     stress       :      0.68s CPU      0.69s WALL (       5 calls)

     Called by init_run:
     wfcinit      :      0.10s CPU      0.10s WALL (       2 calls)
     potinit      :      0.17s CPU      0.17s WALL (       2 calls)
     hinit0       :      0.31s CPU      0.32s WALL (       2 calls)

     Called by electrons:
     c_bands      :      1.79s CPU      1.98s WALL (      26 calls)
     sum_band     :      0.58s CPU      0.61s WALL (      26 calls)
     v_of_rho     :      0.03s CPU      0.03s WALL (      29 calls)
     newd         :      0.29s CPU      0.30s WALL (      29 calls)
     mix_rho      :      0.01s CPU      0.02s WALL (      26 calls)

     Called by c_bands:
     init_us_2    :      0.06s CPU      0.07s WALL (    1121 calls)
     cegterg      :      1.68s CPU      1.86s WALL (     494 calls)

     Called by *egterg:
     cdiaghg      :      0.23s CPU      0.25s WALL (    1570 calls)
     h_psi        :      1.27s CPU      1.40s WALL (    1703 calls)
     s_psi        :      0.02s CPU      0.02s WALL (    1703 calls)
     g_psi        :      0.01s CPU      0.01s WALL (    1171 calls)

     Called by h_psi:
     h_psi:calbec :      0.06s CPU      0.07s WALL (    1703 calls)
     vloc_psi     :      1.17s CPU      1.28s WALL (    1703 calls)
     add_vuspsi   :      0.02s CPU      0.03s WALL (    1703 calls)

     General routines
     calbec       :      0.11s CPU      0.12s WALL (    3432 calls)
     fft          :      0.11s CPU      0.11s WALL (     179 calls)
     ffts         :      0.15s CPU      0.15s WALL (      55 calls)
     fftw         :      1.10s CPU      1.20s WALL (   31536 calls)
     interpolate  :      0.16s CPU      0.16s WALL (      29 calls)

     Parallel routines

     PWSCF        :      4.11s CPU      4.39s WALL


   This run was terminated on:  17:32:52  21Oct2025            

=------------------------------------------------------------------------------=
   JOB DONE.
=------------------------------------------------------------------------------=
