
     Program PWSCF v.7.4.1 starts on  8Oct2025 at  0:23:32 

     This program is part of the open-source Quantum ESPRESSO suite
     for quantum simulation of materials; please cite
         "P. Giannozzi et al., J. Phys.:Condens. Matter 21 395502 (2009);
         "P. Giannozzi et al., J. Phys.:Condens. Matter 29 465901 (2017);
         "P. Giannozzi et al., J. Chem. Phys. 152 154105 (2020);
          URL http://www.quantum-espresso.org", 
     in publications or presentations arising from this work. More details at
     http://www.quantum-espresso.org/quote

     Parallel version (MPI), running on     1 processors

     MPI processes distributed on     1 nodes
     173 MiB available memory on the printing compute node when the environment starts

     Waiting for input...
     Reading input from standard input
Warning: card &CELL ignored
Warning: card / ignored

     Current dimensions of program PWSCF are:
     Max number of different atomic species (ntypx) = 10
     Max number of k-points (npk) =  40000
     Max angular momentum in pseudopotentials (lmaxx) =  4
     Message from routine setup:
     using ibrav=0 with symmetry is DISCOURAGED, use correct ibrav instead

     Subspace diagonalization in iterative solution of the eigenvalue problem:
     a serial algorithm will be used


     G-vector sticks info
     --------------------
     sticks:   dense  smooth     PW     G-vecs:    dense   smooth      PW
     Sum         559     559    163                 8609     8609    1459

     Using Slab Decomposition



     bravais-lattice index     =            0
     lattice parameter (alat)  =       7.5604  a.u.
     unit-cell volume          =     305.5804 (a.u.)^3
     number of atoms/cell      =            2
     number of atomic types    =            1
     number of electrons       =        28.00
     number of Kohn-Sham states=           14
     kinetic-energy cutoff     =      35.0000  Ry
     charge density cutoff     =     140.0000  Ry
     scf convergence threshold =      1.0E-07
     mixing beta               =       0.5000
     number of iterations used =            8  plain     mixing
     Exchange-correlation=  SLA  PZ   NOGX NOGC
                           (   1   1   0   0   0   0   0)

     celldm(1)=   7.560435  celldm(2)=   0.000000  celldm(3)=   0.000000
     celldm(4)=   0.000000  celldm(5)=   0.000000  celldm(6)=   0.000000

     crystal axes: (cart. coord. in units of alat)
               a(1) = (   0.000000   0.707107   0.707107 )  
               a(2) = (   0.707107   0.000000   0.707107 )  
               a(3) = (   0.707107   0.707107   0.000000 )  

     reciprocal axes: (cart. coord. in units 2 pi/alat)
               b(1) = ( -0.707107  0.707107  0.707107 )  
               b(2) = (  0.707107 -0.707107  0.707107 )  
               b(3) = (  0.707107  0.707107 -0.707107 )  


     PseudoPot. # 1 for Ge read from file:
     /home/bond/Software/QE/qe-7.4.1/pseudo/ge_lda_v1.4.uspp.F.UPF
     MD5 check sum: bf9d52b59cc8a669818bb2b52e0c2ba0
     Pseudo is Ultrasoft + core correction, Zval = 14.0
     Generated by new atomic code, or converted to UPF format
     Using radial grid of  873 points,  6 beta functions with: 
                l(1) =   0
                l(2) =   0
                l(3) =   1
                l(4) =   1
                l(5) =   2
                l(6) =   2
     Q(r) pseudized with  8 coefficients,  rinner =    1.400   1.400   1.400
                                                       1.400   1.400

     atomic species   valence    mass     pseudopotential
     Ge               14.00    72.63000     Ge( 1.00)

      4 Sym. Ops. (no inversion) found



   Cartesian axes

     site n.     atom                  positions (alat units)
         1        Ge     tau(   1) = (   0.0000000   0.0000000   0.0707107  )
         2        Ge     tau(   2) = (   0.3535534   0.3535534   0.3535534  )

     number of k points=    18
                       cart. coord. in units 2pi/alat
        k(    1) = (   0.0000000   0.0000000   0.0000000), wk =   0.0312500
        k(    2) = (   0.1767767   0.1767767  -0.1767767), wk =   0.1250000
        k(    3) = (  -0.3535534  -0.3535534   0.3535534), wk =   0.0625000
        k(    4) = (   0.3535534   0.0000000   0.0000000), wk =   0.1250000
        k(    5) = (  -0.1767767  -0.5303301   0.5303301), wk =   0.2500000
        k(    6) = (   0.0000000  -0.3535534   0.3535534), wk =   0.2500000
        k(    7) = (  -0.7071068   0.0000000   0.0000000), wk =   0.0625000
        k(    8) = (  -0.7071068   0.3535534   0.0000000), wk =   0.1250000
        k(    9) = (   0.1767767  -0.1767767  -0.1767767), wk =   0.1250000
        k(   10) = (  -0.3535534   0.3535534   0.3535534), wk =   0.0625000
        k(   11) = (   0.0000000   0.0000000   0.3535534), wk =   0.0625000
        k(   12) = (  -0.5303301   0.1767767   0.5303301), wk =   0.2500000
        k(   13) = (   0.5303301   0.5303301  -0.1767767), wk =   0.1250000
        k(   14) = (  -0.5303301   0.5303301   0.1767767), wk =   0.1250000
        k(   15) = (   0.3535534   0.3535534   0.0000000), wk =   0.0625000
        k(   16) = (  -0.3535534   0.3535534   0.0000000), wk =   0.0625000
        k(   17) = (   0.0000000   0.0000000  -0.7071068), wk =   0.0312500
        k(   18) = (   0.7071068   0.0000000   0.3535534), wk =   0.0625000

     Dense  grid:     8609 G-vectors     FFT dimensions: (  30,  30,  30)

     Estimated max dynamical RAM per process >      37.71 MB

     Check: negative core charge=   -0.000016

     Initial potential from superposition of free atoms

     starting charge      27.9986, renormalised to      28.0000
     Starting wfcs are   18 randomized atomic wfcs

     total cpu time spent up to now is        1.1 secs

     Self-consistent Calculation

     iteration #  1     ecut=    35.00 Ry     beta= 0.50
     Davidson diagonalization with overlap
     ethr =  1.00E-02,  avg # of iterations =  1.8

     Threshold (ethr) on eigenvalues was too large:
     Diagonalizing with lowered threshold

     Davidson diagonalization with overlap
     ethr =  1.36E-04,  avg # of iterations =  2.0

     total cpu time spent up to now is        2.1 secs

     total energy              =    -426.11930448 Ry
     estimated scf accuracy    <       0.04012108 Ry

     iteration #  2     ecut=    35.00 Ry     beta= 0.50
     Davidson diagonalization with overlap
     ethr =  1.43E-04,  avg # of iterations =  1.1

     total cpu time spent up to now is        2.5 secs

     total energy              =    -426.11781984 Ry
     estimated scf accuracy    <       0.00692221 Ry

     iteration #  3     ecut=    35.00 Ry     beta= 0.50
     Davidson diagonalization with overlap
     ethr =  2.47E-05,  avg # of iterations =  2.2

     total cpu time spent up to now is        3.1 secs

     total energy              =    -426.11837327 Ry
     estimated scf accuracy    <       0.00008984 Ry

     iteration #  4     ecut=    35.00 Ry     beta= 0.50
     Davidson diagonalization with overlap
     ethr =  3.21E-07,  avg # of iterations =  3.6

     total cpu time spent up to now is        3.7 secs

     total energy              =    -426.11840618 Ry
     estimated scf accuracy    <       0.00000322 Ry

     iteration #  5     ecut=    35.00 Ry     beta= 0.50
     Davidson diagonalization with overlap
     ethr =  1.15E-08,  avg # of iterations =  3.6

     total cpu time spent up to now is        4.3 secs

     total energy              =    -426.11840723 Ry
     estimated scf accuracy    <       0.00000018 Ry

     iteration #  6     ecut=    35.00 Ry     beta= 0.50
     Davidson diagonalization with overlap
     ethr =  6.44E-10,  avg # of iterations =  3.1

     total cpu time spent up to now is        5.0 secs

     End of self-consistent calculation

          k = 0.0000 0.0000 0.0000 (  1067 PWs)   bands (ev):

   -16.8340 -16.8289 -16.7670 -16.7304 -16.7058 -16.5564 -16.5252 -16.5228
   -16.4985 -16.4939  -4.7156   6.8893   7.9970   8.4114

          k = 0.1768 0.1768-0.1768 (  1074 PWs)   bands (ev):

   -16.8830 -16.8650 -16.7681 -16.6855 -16.6824 -16.5769 -16.5717 -16.4890
   -16.4780 -16.4506  -3.9325   2.8202   6.9661   8.0230

          k =-0.3536-0.3536 0.3536 (  1068 PWs)   bands (ev):

   -16.9109 -16.8971 -16.7542 -16.6944 -16.6668 -16.5751 -16.5729 -16.4935
   -16.4499 -16.4206  -2.2955  -0.2978   6.3496   7.4857

          k = 0.3536 0.0000 0.0000 (  1062 PWs)   bands (ev):

   -16.8816 -16.8688 -16.7642 -16.6750 -16.6508 -16.6205 -16.5708 -16.4973
   -16.4631 -16.4550  -3.7207   3.0866   6.2338   6.4030

          k =-0.1768-0.5303 0.5303 (  1076 PWs)   bands (ev):

   -16.9178 -16.8937 -16.7455 -16.6799 -16.6508 -16.5910 -16.5846 -16.5173
   -16.4410 -16.4134  -2.0115   0.0320   4.8145   5.9029

          k = 0.0000-0.3536 0.3536 (  1065 PWs)   bands (ev):

   -16.8952 -16.8544 -16.7366 -16.6981 -16.6604 -16.5952 -16.5653 -16.5311
   -16.4692 -16.4364  -2.8904   1.5578   4.2062   6.8680

          k =-0.7071 0.0000 0.0000 (  1090 PWs)   bands (ev):

   -16.9065 -16.9064 -16.7141 -16.7141 -16.6177 -16.6175 -16.5546 -16.5546
   -16.4250 -16.4250  -0.9075  -0.9075   5.2466   5.2466

          k =-0.7071 0.3536 0.0000 (  1084 PWs)   bands (ev):

   -16.9064 -16.8376 -16.7226 -16.7084 -16.6319 -16.6281 -16.5536 -16.5507
   -16.4756 -16.4247  -1.4318   0.0019   3.8759   4.6282

          k = 0.1768-0.1768-0.1768 (  1074 PWs)   bands (ev):

   -16.8369 -16.8288 -16.7536 -16.7215 -16.6901 -16.5718 -16.5469 -16.5234
   -16.4941 -16.4903  -4.0448   3.9154   6.3360   7.9792

          k =-0.3536 0.3536 0.3536 (  1068 PWs)   bands (ev):

   -16.8414 -16.8209 -16.7449 -16.7174 -16.6651 -16.5965 -16.5589 -16.5186
   -16.4975 -16.4886  -2.9749   1.3164   5.9251   7.5567

          k = 0.0000 0.0000 0.3536 (  1062 PWs)   bands (ev):

   -16.8410 -16.8223 -16.7423 -16.7247 -16.7051 -16.5795 -16.5282 -16.5155
   -16.5008 -16.4924  -3.7453   3.5760   5.4971   6.5169

          k =-0.5303 0.1768 0.5303 (  1076 PWs)   bands (ev):

   -16.8956 -16.8570 -16.7324 -16.6728 -16.6480 -16.6122 -16.5899 -16.5345
   -16.4635 -16.4363  -2.4884   1.2779   3.9613   6.0147

          k = 0.5303 0.5303-0.1768 (  1076 PWs)   bands (ev):

   -16.9060 -16.8321 -16.7469 -16.7053 -16.6560 -16.6083 -16.5558 -16.5043
   -16.4999 -16.4254  -2.1643   0.4639   4.0846   6.1777

          k =-0.5303 0.5303 0.1768 (  1076 PWs)   bands (ev):

   -16.8482 -16.8147 -16.7274 -16.7183 -16.6902 -16.5889 -16.5530 -16.5347
   -16.4861 -16.4857  -2.5388   1.3734   4.7697   5.1722

          k = 0.3536 0.3536 0.0000 (  1065 PWs)   bands (ev):

   -16.9265 -16.8788 -16.7693 -16.6662 -16.6506 -16.6120 -16.5755 -16.4835
   -16.4666 -16.4057  -2.5984   0.6343   4.4014   7.3077

          k =-0.3536 0.3536 0.0000 (  1065 PWs)   bands (ev):

   -16.8462 -16.8243 -16.7350 -16.7141 -16.6346 -16.6303 -16.5603 -16.5401
   -16.4824 -16.4816  -3.1069   2.5805   4.2910   5.8692

          k = 0.0000 0.0000-0.7071 (  1090 PWs)   bands (ev):

   -16.8527 -16.7962 -16.7407 -16.7122 -16.7079 -16.5916 -16.5443 -16.5157
   -16.5037 -16.4801  -1.7123   0.2662   4.6085   5.4076

          k = 0.7071 0.0000 0.3536 (  1084 PWs)   bands (ev):

   -16.9094 -16.9094 -16.7009 -16.7009 -16.6193 -16.6191 -16.5682 -16.5682
   -16.4197 -16.4197  -0.8195  -0.8194   4.3781   4.3781

     highest occupied level (ev):     8.4114

!    total energy              =    -426.11840728 Ry
     estimated scf accuracy    <       0.00000002 Ry

     The total energy is the sum of the following terms:
     one-electron contribution =    -280.49119062 Ry
     hartree contribution      =     165.67729618 Ry
     xc contribution           =    -114.55529477 Ry
     ewald contribution        =    -196.74921807 Ry

     convergence has been achieved in   6 iterations

     Forces acting on atoms (cartesian axes, Ry/au):

     atom    1 type  1   force =     0.00000000    0.00000000   -0.11639616
     atom    2 type  1   force =     0.00000000    0.00000000    0.11639616

     Total force =     0.164609     Total SCF correction =     0.000375


     Computing stress (Cartesian axis) and pressure

          total   stress  (Ry/bohr**3)                   (kbar)     P=        6.44
   0.00010082   0.00050493   0.00000000           14.83       74.28        0.00
   0.00050493   0.00010082   0.00000000           74.28       14.83        0.00
   0.00000000   0.00000000  -0.00007028            0.00        0.00      -10.34

     Message from routine punch:
     Nothing written, as per user request (disk_io='none')

     init_run     :      0.89s CPU      0.93s WALL (       1 calls)
     electrons    :      3.83s CPU      3.87s WALL (       1 calls)
     forces       :      0.07s CPU      0.07s WALL (       1 calls)
     stress       :      0.52s CPU      0.52s WALL (       1 calls)

     Called by init_run:
     wfcinit      :      0.50s CPU      0.50s WALL (       1 calls)
     potinit      :      0.01s CPU      0.02s WALL (       1 calls)
     hinit0       :      0.34s CPU      0.35s WALL (       1 calls)

     Called by electrons:
     c_bands      :      2.91s CPU      2.94s WALL (       7 calls)
     sum_band     :      0.72s CPU      0.73s WALL (       7 calls)
     v_of_rho     :      0.01s CPU      0.01s WALL (       7 calls)
     newd         :      0.21s CPU      0.22s WALL (       7 calls)
     mix_rho      :      0.01s CPU      0.01s WALL (       7 calls)

     Called by c_bands:
     init_us_2    :      0.12s CPU      0.12s WALL (     306 calls)
     cegterg      :      2.64s CPU      2.67s WALL (     126 calls)

     Called by *egterg:
     cdiaghg      :      0.11s CPU      0.12s WALL (     421 calls)
     h_psi        :      2.63s CPU      2.65s WALL (     457 calls)
     s_psi        :      0.07s CPU      0.07s WALL (     457 calls)
     g_psi        :      0.01s CPU      0.01s WALL (     313 calls)

     Called by h_psi:
     h_psi:calbec :      0.09s CPU      0.09s WALL (     457 calls)
     vloc_psi     :      2.45s CPU      2.47s WALL (     457 calls)
     add_vuspsi   :      0.07s CPU      0.07s WALL (     457 calls)

     General routines
     calbec       :      0.17s CPU      0.18s WALL (     889 calls)
     fft          :      0.16s CPU      0.17s WALL (      37 calls)
     ffts         :      0.00s CPU      0.00s WALL (       7 calls)
     fftw         :      2.48s CPU      2.50s WALL (   11376 calls)

     Parallel routines

     PWSCF        :      5.47s CPU      5.54s WALL


   This run was terminated on:   0:23:38   8Oct2025            

=------------------------------------------------------------------------------=
   JOB DONE.
=------------------------------------------------------------------------------=
