LAMMPS (22 Jul 2025 - Update 1)
Reading data file ...
  orthogonal box = (0 0 0) to (8.245046 8.245046 8.245046)
  1 by 1 by 1 MPI processor grid
  reading atoms ...
  31 atoms
  read_data CPU = 0.001 seconds
WARNING: No fixes with time integration, atoms won't move
For more information see https://docs.lammps.org/err0028 (../verlet.cpp:60)
Generated 0 of 0 mixed pair_coeff terms from geometric mixing rule
Neighbor list info ...
  update: every = 1 steps, delay = 0 steps, check = yes
  max neighbors/atom: 2000, page size: 100000
  master list distance cutoff = 6.5
  ghost atom cutoff = 6.5
  binsize = 3.25, bins = 3 3 3
  1 neighbor lists, perpetual/occasional/extra = 1 0 0
  (1) pair lj/cut, perpetual
      attributes: half, newton on
      pair build: half/bin/atomonly/newton
      stencil: half/bin/3d
      bin: standard
Setting up Verlet run ...
  Unit style    : metal
  Current step  : 0
  Time step     : 0.001
Per MPI rank memory allocation (min/avg/max) = 3.08 | 3.08 | 3.08 Mbytes
   Step         PotEng           Lx             Ly             Lz           Press           Pxx            Pyy            Pzz      
         0  -79.03814       8.245046       8.245046       8.245046      -0.091864757   -0.13556739    -0.0044594961  -0.13556739   
Loop time of 1.94e-06 on 1 procs for 0 steps with 31 atoms

103.1% CPU use with 1 MPI tasks x no OpenMP threads

MPI task timing breakdown:
Section |  min time  |  avg time  |  max time  |%varavg| %total
---------------------------------------------------------------
Pair    | 0          | 0          | 0          |   0.0 |  0.00
Neigh   | 0          | 0          | 0          |   0.0 |  0.00
Comm    | 0          | 0          | 0          |   0.0 |  0.00
Output  | 0          | 0          | 0          |   0.0 |  0.00
Modify  | 0          | 0          | 0          |   0.0 |  0.00
Other   |            | 1.94e-06   |            |       |100.00

Nlocal:             31 ave          31 max          31 min
Histogram: 1 0 0 0 0 0 0 0 0 0
Nghost:            616 ave         616 max         616 min
Histogram: 1 0 0 0 0 0 0 0 0 0
Neighs:            810 ave         810 max         810 min
Histogram: 1 0 0 0 0 0 0 0 0 0

Total # of neighbors = 810
Ave neighs/atom = 26.129032
Neighbor list builds = 0
Dangerous builds = 0
Generated 0 of 0 mixed pair_coeff terms from geometric mixing rule
Setting up cg style minimization ...
  Unit style    : metal
  Current step  : 0
WARNING: Energy due to 1 extra global DOFs will be included in minimizer energies
 (../min.cpp:222)
Per MPI rank memory allocation (min/avg/max) = 4.205 | 4.205 | 4.205 Mbytes
   Step         PotEng           Lx             Ly             Lz           Press           Pxx            Pyy            Pzz      
         0  -79.03814       8.245046       8.245046       8.245046      -0.091864757   -0.13556739    -0.0044594961  -0.13556739   
        17  -79.041851      8.2438277      8.2438277      8.2438277      0.37378829     0.37252532     0.37631423     0.37252532   
Loop time of 0.00090093 on 1 procs for 17 steps with 31 atoms

76.1% CPU use with 1 MPI tasks x no OpenMP threads

Minimization stats:
  Stopping criterion = energy tolerance
  Energy initial, next-to-last, final = 
     -79.0381403194544  -79.0418505080025  -79.0418505080184
  Force two-norm initial, final = 0.31976532 0.00039856787
  Force max component initial, final = 0.065317065 0.00039218185
  Final line search alpha, max atom move = 1 0.00039218185
  Iterations, force evaluations = 17 34

MPI task timing breakdown:
Section |  min time  |  avg time  |  max time  |%varavg| %total
---------------------------------------------------------------
Pair    | 0.00042192 | 0.00042192 | 0.00042192 |   0.0 | 46.83
Neigh   | 0          | 0          | 0          |   0.0 |  0.00
Comm    | 9.7046e-05 | 9.7046e-05 | 9.7046e-05 |   0.0 | 10.77
Output  | 0          | 0          | 0          |   0.0 |  0.00
Modify  | 0          | 0          | 0          |   0.0 |  0.00
Other   |            | 0.000382   |            |       | 42.40

Nlocal:             31 ave          31 max          31 min
Histogram: 1 0 0 0 0 0 0 0 0 0
Nghost:            616 ave         616 max         616 min
Histogram: 1 0 0 0 0 0 0 0 0 0
Neighs:            810 ave         810 max         810 min
Histogram: 1 0 0 0 0 0 0 0 0 0

Total # of neighbors = 810
Ave neighs/atom = 26.129032
Neighbor list builds = 0
Dangerous builds = 0
Total energy (eV) = -79.0418505080184
Number of atoms = 31
Lattice constant (Angstoms) = 8.24382768711662
Total wall time: 0:00:00
