LAMMPS (22 Jul 2025 - Update 1)
Reading data file ...
  orthogonal box = (0 0 0) to (12.244965 8.6584976 19.215415)
  1 by 1 by 1 MPI processor grid
  reading atoms ...
  54 atoms
  read_data CPU = 0.001 seconds
Reading eam/alloy potential file /home/bond/Software/LAMMPS/lammps-22Jul2025/potentials/Al_zhou.eam.alloy with DATE: 2007-10-12
WARNING: No fixes with time integration, atoms won't move
For more information see https://docs.lammps.org/err0028 (../verlet.cpp:60)
Neighbor list info ...
  update: every = 1 steps, delay = 0 steps, check = yes
  max neighbors/atom: 2000, page size: 100000
  master list distance cutoff = 12.1025
  ghost atom cutoff = 12.1025
  binsize = 6.05125, bins = 3 2 4
  1 neighbor lists, perpetual/occasional/extra = 1 0 0
  (1) pair eam/alloy, perpetual
      attributes: half, newton on
      pair build: half/bin/atomonly/newton
      stencil: half/bin/3d
      bin: standard
Setting up Verlet run ...
  Unit style    : metal
  Current step  : 0
  Time step     : 0.001
Per MPI rank memory allocation (min/avg/max) = 3.313 | 3.313 | 3.313 Mbytes
   Step         PotEng           Lx             Ly             Lz           Press           Pxx            Pyy            Pzz      
         0  -180.3205       12.244965      8.6584976      19.215415     -20492.915     -25194.268     -23624.223     -12660.255    
Loop time of 1.52e-06 on 1 procs for 0 steps with 54 atoms

197.4% CPU use with 1 MPI tasks x no OpenMP threads

MPI task timing breakdown:
Section |  min time  |  avg time  |  max time  |%varavg| %total
---------------------------------------------------------------
Pair    | 0          | 0          | 0          |   0.0 |  0.00
Neigh   | 0          | 0          | 0          |   0.0 |  0.00
Comm    | 0          | 0          | 0          |   0.0 |  0.00
Output  | 0          | 0          | 0          |   0.0 |  0.00
Modify  | 0          | 0          | 0          |   0.0 |  0.00
Other   |            | 1.52e-06   |            |       |100.00

Nlocal:             54 ave          54 max          54 min
Histogram: 1 0 0 0 0 0 0 0 0 0
Nghost:            531 ave         531 max         531 min
Histogram: 1 0 0 0 0 0 0 0 0 0
Neighs:           5706 ave        5706 max        5706 min
Histogram: 1 0 0 0 0 0 0 0 0 0

Total # of neighbors = 5706
Ave neighs/atom = 105.66667
Neighbor list builds = 0
Dangerous builds = 0
Setting up cg style minimization ...
  Unit style    : metal
  Current step  : 0
Per MPI rank memory allocation (min/avg/max) = 4.438 | 4.438 | 4.438 Mbytes
   Step         PotEng           Lx             Ly             Lz           Press           Pxx            Pyy            Pzz      
         0  -180.3205       12.244965      8.6584976      19.215415     -20492.915     -25194.268     -23624.223     -12660.255    
         7  -180.71947      12.244965      8.6584976      19.215415     -9678.3053     -14484.25      -14550.652     -0.014202375  
Loop time of 0.00438611 on 1 procs for 7 steps with 54 atoms

82.3% CPU use with 1 MPI tasks x no OpenMP threads

Minimization stats:
  Stopping criterion = energy tolerance
  Energy initial, next-to-last, final = 
       -180.3205037766  -180.719465176692  -180.719465176812
  Force two-norm initial, final = 1.4870822 4.4907919e-06
  Force max component initial, final = 0.32385602 1.1801939e-06
  Final line search alpha, max atom move = 1 1.1801939e-06
  Iterations, force evaluations = 7 14

MPI task timing breakdown:
Section |  min time  |  avg time  |  max time  |%varavg| %total
---------------------------------------------------------------
Pair    | 0.0042759  | 0.0042759  | 0.0042759  |   0.0 | 97.49
Neigh   | 0          | 0          | 0          |   0.0 |  0.00
Comm    | 3.8259e-05 | 3.8259e-05 | 3.8259e-05 |   0.0 |  0.87
Output  | 0          | 0          | 0          |   0.0 |  0.00
Modify  | 0          | 0          | 0          |   0.0 |  0.00
Other   |            | 7.195e-05  |            |       |  1.64

Nlocal:             54 ave          54 max          54 min
Histogram: 1 0 0 0 0 0 0 0 0 0
Nghost:            531 ave         531 max         531 min
Histogram: 1 0 0 0 0 0 0 0 0 0
Neighs:           5706 ave        5706 max        5706 min
Histogram: 1 0 0 0 0 0 0 0 0 0

Total # of neighbors = 5706
Ave neighs/atom = 105.66667
Neighbor list builds = 0
Dangerous builds = 0
Total energy (eV) = -180.719465176812
Number of atoms = 54
Lattice constant (Angstoms) = 12.2449647145904
Total wall time: 0:00:00
