
     Program PWSCF v.7.4.1 starts on 21Oct2025 at  1:40: 2 

     This program is part of the open-source Quantum ESPRESSO suite
     for quantum simulation of materials; please cite
         "P. Giannozzi et al., J. Phys.:Condens. Matter 21 395502 (2009);
         "P. Giannozzi et al., J. Phys.:Condens. Matter 29 465901 (2017);
         "P. Giannozzi et al., J. Chem. Phys. 152 154105 (2020);
          URL http://www.quantum-espresso.org", 
     in publications or presentations arising from this work. More details at
     http://www.quantum-espresso.org/quote

     Parallel version (MPI), running on     2 processors

     MPI processes distributed on     1 nodes
     299 MiB available memory on the printing compute node when the environment starts

     Waiting for input...
     Reading input from standard input
Warning: card &CELL ignored
Warning: card / ignored

     Current dimensions of program PWSCF are:
     Max number of different atomic species (ntypx) = 10
     Max number of k-points (npk) =  40000
     Max angular momentum in pseudopotentials (lmaxx) =  4
     file O.pz-rrkjus.UPF: wavefunction(s)  2S renormalized
     Message from routine setup:
     using ibrav=0 with symmetry is DISCOURAGED, use correct ibrav instead

     R & G space division:  proc/nbgrp/npool/nimage =       2
     Subspace diagonalization in iterative solution of the eigenvalue problem:
     a serial algorithm will be used


     Parallelization info
     --------------------
     sticks:   dense  smooth     PW     G-vecs:    dense   smooth      PW
     Min         553     276     88                13912     4896     823
     Max         556     277     89                13913     4899     824
     Sum        1109     553    177                27825     9795    1647

     Using Slab Decomposition



     bravais-lattice index     =            0
     lattice parameter (alat)  =       7.6219  a.u.
     unit-cell volume          =     442.7810 (a.u.)^3
     number of atoms/cell      =            5
     number of atomic types    =            3
     number of electrons       =        44.00
     number of Kohn-Sham states=           22
     kinetic-energy cutoff     =      30.0000  Ry
     charge density cutoff     =     240.0000  Ry
     scf convergence threshold =      1.0E-07
     mixing beta               =       0.7000
     number of iterations used =            8  plain     mixing
     Exchange-correlation= SLA  PZ   NOGX NOGC
                           (   1   1   0   0   0   0   0)

     celldm(1)=   7.621895  celldm(2)=   0.000000  celldm(3)=   0.000000
     celldm(4)=   0.000000  celldm(5)=   0.000000  celldm(6)=   0.000000

     crystal axes: (cart. coord. in units of alat)
               a(1) = (   1.000000   0.000000   0.000000 )  
               a(2) = (   0.000000   1.000000   0.000000 )  
               a(3) = (   0.000000   0.000000   1.000000 )  

     reciprocal axes: (cart. coord. in units 2 pi/alat)
               b(1) = (  1.000000  0.000000  0.000000 )  
               b(2) = (  0.000000  1.000000  0.000000 )  
               b(3) = (  0.000000  0.000000  1.000000 )  


     PseudoPot. # 1 for O  read from file:
     /home/bond/Software/QE/qe-7.4.1/pseudo/O.pz-rrkjus.UPF
     MD5 check sum: 24fb942a68ef5d262e498166c462ef4a
     Pseudo is Ultrasoft, Zval =  6.0
     Generated by new atomic code, or converted to UPF format
     Using radial grid of 1269 points,  4 beta functions with: 
                l(1) =   0
                l(2) =   0
                l(3) =   1
                l(4) =   1
     Q(r) pseudized with 0 coefficients 


     PseudoPot. # 2 for Pb read from file:
     /home/bond/Software/QE/qe-7.4.1/pseudo/Pb.pz-d-van.UPF
     MD5 check sum: 4e1e5920686a026ae26139ac417581ff
     Pseudo is Ultrasoft, Zval = 14.0
     Generated by new atomic code, or converted to UPF format
     Using radial grid of  899 points,  6 beta functions with: 
                l(1) =   0
                l(2) =   0
                l(3) =   1
                l(4) =   1
                l(5) =   2
                l(6) =   2
     Q(r) pseudized with  8 coefficients,  rinner =    1.000   1.000   1.000
                                                       1.000   1.000

     PseudoPot. # 3 for Ti read from file:
     /home/bond/Software/QE/qe-7.4.1/pseudo/Ti.pz-sp-van_ak.UPF
     MD5 check sum: 545d0e6e05332b8871a8093f427cb0ca
     Pseudo is Ultrasoft, Zval = 12.0
     Generated by new atomic code, or converted to UPF format
     Using radial grid of  851 points,  6 beta functions with: 
                l(1) =   0
                l(2) =   0
                l(3) =   1
                l(4) =   1
                l(5) =   2
                l(6) =   2
     Q(r) pseudized with  8 coefficients,  rinner =    1.000   1.000   1.000
                                                       1.000   1.000

     atomic species   valence    mass     pseudopotential
     O                 6.00    15.99900     O ( 1.00)
     Pb               14.00   207.20000     Pb( 1.00)
     Ti               12.00    47.86700     Ti( 1.00)

     48 Sym. Ops., with inversion, found



   Cartesian axes

     site n.     atom                  positions (alat units)
         1        Pb     tau(   1) = (   0.0000000   0.0000000   0.0000000  )
         2        Ti     tau(   2) = (   0.5000008   0.5000008   0.5000008  )
         3        O      tau(   3) = (   0.0000000   0.5000008   0.5000008  )
         4        O      tau(   4) = (   0.5000008   0.0000000   0.5000008  )
         5        O      tau(   5) = (   0.5000008   0.5000008   0.0000000  )

     number of k points=     4
                       cart. coord. in units 2pi/alat
        k(    1) = (   0.1250000   0.1250000   0.1250000), wk =   0.2500000
        k(    2) = (   0.1250000   0.1250000   0.3750000), wk =   0.7500000
        k(    3) = (   0.1250000   0.3750000   0.3750000), wk =   0.7500000
        k(    4) = (   0.3750000   0.3750000   0.3750000), wk =   0.2500000

     Dense  grid:    27825 G-vectors     FFT dimensions: (  40,  40,  40)

     Smooth grid:     9795 G-vectors     FFT dimensions: (  27,  27,  27)

     Estimated max dynamical RAM per process >      56.76 MB

     Estimated total dynamical RAM >     113.52 MB

     Initial potential from superposition of free atoms

     starting charge      42.9982, renormalised to      44.0000
     Starting wfcs are   31 randomized atomic wfcs

     total cpu time spent up to now is        1.5 secs

     Self-consistent Calculation

     iteration #  1     ecut=    30.00 Ry     beta= 0.70
     Davidson diagonalization with overlap
     ethr =  1.00E-02,  avg # of iterations =  2.0

     total cpu time spent up to now is        1.9 secs

     total energy              =    -332.52275359 Ry
     estimated scf accuracy    <       1.16596594 Ry

     iteration #  2     ecut=    30.00 Ry     beta= 0.70
     Davidson diagonalization with overlap
     ethr =  2.65E-03,  avg # of iterations =  8.2

     total cpu time spent up to now is        2.5 secs

     total energy              =    -331.52933447 Ry
     estimated scf accuracy    <      10.50648950 Ry

     iteration #  3     ecut=    30.00 Ry     beta= 0.70
     Davidson diagonalization with overlap
     ethr =  2.65E-03,  avg # of iterations =  7.0

     total cpu time spent up to now is        3.0 secs

     total energy              =    -333.01218390 Ry
     estimated scf accuracy    <       0.37597149 Ry

     iteration #  4     ecut=    30.00 Ry     beta= 0.70
     Davidson diagonalization with overlap
     ethr =  8.54E-04,  avg # of iterations =  4.0

     total cpu time spent up to now is        3.5 secs

     total energy              =    -333.06484160 Ry
     estimated scf accuracy    <       0.05196442 Ry

     iteration #  5     ecut=    30.00 Ry     beta= 0.70
     Davidson diagonalization with overlap
     ethr =  1.18E-04,  avg # of iterations =  6.5

     total cpu time spent up to now is        3.9 secs

     total energy              =    -333.14829590 Ry
     estimated scf accuracy    <       0.02367923 Ry

     iteration #  6     ecut=    30.00 Ry     beta= 0.70
     Davidson diagonalization with overlap
     ethr =  5.38E-05,  avg # of iterations =  3.5

     total cpu time spent up to now is        4.3 secs

     total energy              =    -333.14641579 Ry
     estimated scf accuracy    <       0.00897795 Ry

     iteration #  7     ecut=    30.00 Ry     beta= 0.70
     Davidson diagonalization with overlap
     ethr =  2.04E-05,  avg # of iterations =  4.8

     total cpu time spent up to now is        4.8 secs

     total energy              =    -333.14990248 Ry
     estimated scf accuracy    <       0.00265814 Ry

     iteration #  8     ecut=    30.00 Ry     beta= 0.70
     Davidson diagonalization with overlap
     ethr =  6.04E-06,  avg # of iterations =  1.2

     total cpu time spent up to now is        5.2 secs

     total energy              =    -333.14929606 Ry
     estimated scf accuracy    <       0.00190069 Ry

     iteration #  9     ecut=    30.00 Ry     beta= 0.70
     Davidson diagonalization with overlap
     ethr =  4.32E-06,  avg # of iterations =  5.0

     total cpu time spent up to now is        5.6 secs

     total energy              =    -333.14967993 Ry
     estimated scf accuracy    <       0.00007576 Ry

     iteration # 10     ecut=    30.00 Ry     beta= 0.70
     Davidson diagonalization with overlap
     ethr =  1.72E-07,  avg # of iterations =  5.2

     total cpu time spent up to now is        6.1 secs

     total energy              =    -333.14970961 Ry
     estimated scf accuracy    <       0.00011199 Ry

     iteration # 11     ecut=    30.00 Ry     beta= 0.70
     Davidson diagonalization with overlap
     ethr =  1.72E-07,  avg # of iterations =  4.2

     total cpu time spent up to now is        6.5 secs

     total energy              =    -333.14971545 Ry
     estimated scf accuracy    <       0.00001224 Ry

     iteration # 12     ecut=    30.00 Ry     beta= 0.70
     Davidson diagonalization with overlap
     ethr =  2.78E-08,  avg # of iterations =  4.5

     total cpu time spent up to now is        7.0 secs

     total energy              =    -333.14972237 Ry
     estimated scf accuracy    <       0.00000468 Ry

     iteration # 13     ecut=    30.00 Ry     beta= 0.70
     Davidson diagonalization with overlap
     ethr =  1.06E-08,  avg # of iterations =  2.5

     total cpu time spent up to now is        7.4 secs

     total energy              =    -333.14972240 Ry
     estimated scf accuracy    <       0.00000535 Ry

     iteration # 14     ecut=    30.00 Ry     beta= 0.70
     Davidson diagonalization with overlap
     ethr =  1.06E-08,  avg # of iterations =  1.0

     total cpu time spent up to now is        7.8 secs

     total energy              =    -333.14972116 Ry
     estimated scf accuracy    <       0.00000539 Ry

     iteration # 15     ecut=    30.00 Ry     beta= 0.70
     Davidson diagonalization with overlap
     ethr =  1.06E-08,  avg # of iterations =  1.8

     total cpu time spent up to now is        8.2 secs

     total energy              =    -333.14972095 Ry
     estimated scf accuracy    <       0.00000239 Ry

     iteration # 16     ecut=    30.00 Ry     beta= 0.70
     Davidson diagonalization with overlap
     ethr =  5.43E-09,  avg # of iterations =  4.5

     total cpu time spent up to now is        8.6 secs

     End of self-consistent calculation

          k = 0.1250 0.1250 0.1250 (  1240 PWs)   bands (ev):

   -46.9812 -23.4959 -23.4951 -23.4951  -7.6294  -6.7931  -6.7931  -6.0735
    -6.0735  -6.0641  -5.8819  -5.8819   2.7853   5.8406   5.8406   6.2815
     7.5501   7.5501   8.2359   8.2359   8.2643   8.2804

          k = 0.1250 0.1250 0.3750 (  1224 PWs)   bands (ev):

   -46.9805 -23.5263 -23.4939 -23.4938  -7.3117  -6.6976  -6.6848  -6.1121
    -6.0697  -6.0524  -5.9709  -5.8760   2.2589   5.3461   5.9860   6.2756
     6.7903   7.1960   7.6515   8.3101   8.3850   8.7954

          k = 0.1250 0.3750 0.3750 (  1230 PWs)   bands (ev):

   -46.9799 -23.5256 -23.5254 -23.4926  -7.1667  -6.6384  -6.5919  -6.0949
    -6.0636  -5.9999  -5.9281  -5.7895   2.0481   5.2541   5.4454   5.8352
     6.1114   6.9160   7.6684   7.8725   8.1222   8.9684

          k = 0.3750 0.3750 0.3750 (  1223 PWs)   bands (ev):

   -46.9792 -23.5241 -23.5241 -23.5238  -6.9086  -6.7855  -6.7855  -6.0406
    -6.0406  -5.7551  -5.6893  -5.6893   2.5963   4.8014   4.8014   5.0961
     5.5845   5.5845   6.1908   8.9213   8.9213   9.0052

     highest occupied level (ev):     9.0052

!    total energy              =    -333.14972133 Ry
     estimated scf accuracy    <       0.00000006 Ry

     The total energy is the sum of the following terms:
     one-electron contribution =     -92.13776010 Ry
     hartree contribution      =      70.79559370 Ry
     xc contribution           =     -49.21958718 Ry
     ewald contribution        =    -262.58796774 Ry

     convergence has been achieved in  16 iterations

     Forces acting on atoms (cartesian axes, Ry/au):

     atom    1 type  2   force =     0.00000000    0.00000000    0.00000000
     atom    2 type  3   force =     0.00000000    0.00000000    0.00000000
     atom    3 type  1   force =     0.00000000    0.00000000    0.00000000
     atom    4 type  1   force =     0.00000000    0.00000000    0.00000000
     atom    5 type  1   force =     0.00000000    0.00000000    0.00000000

     Total force =     0.000000     Total SCF correction =     0.000000


     Computing stress (Cartesian axis) and pressure

          total   stress  (Ry/bohr**3)                   (kbar)     P=     -206.07
  -0.00140081   0.00000000   0.00000000         -206.07        0.00        0.00
   0.00000000  -0.00140081   0.00000000            0.00     -206.07        0.00
   0.00000000   0.00000000  -0.00140081            0.00        0.00     -206.07

     Message from routine punch:
     Nothing written, as per user request (disk_io='none')

     init_run     :      1.02s CPU      1.09s WALL (       1 calls)
     electrons    :      6.12s CPU      7.09s WALL (       1 calls)
     forces       :      0.13s CPU      0.16s WALL (       1 calls)
     stress       :      1.28s CPU      1.35s WALL (       1 calls)

     Called by init_run:
     wfcinit      :      0.08s CPU      0.09s WALL (       1 calls)
     potinit      :      0.10s CPU      0.10s WALL (       1 calls)
     hinit0       :      0.65s CPU      0.67s WALL (       1 calls)

     Called by electrons:
     c_bands      :      2.37s CPU      2.54s WALL (      16 calls)
     sum_band     :      2.15s CPU      2.57s WALL (      16 calls)
     v_of_rho     :      0.04s CPU      0.05s WALL (      17 calls)
     newd         :      1.60s CPU      2.01s WALL (      17 calls)
     mix_rho      :      0.03s CPU      0.04s WALL (      16 calls)

     Called by c_bands:
     init_us_2    :      0.06s CPU      0.06s WALL (     140 calls)
     cegterg      :      2.26s CPU      2.42s WALL (      64 calls)

     Called by *egterg:
     cdiaghg      :      0.20s CPU      0.22s WALL (     328 calls)
     h_psi        :      1.83s CPU      1.97s WALL (     332 calls)
     s_psi        :      0.05s CPU      0.05s WALL (     332 calls)
     g_psi        :      0.01s CPU      0.01s WALL (     264 calls)

     Called by h_psi:
     h_psi:calbec :      0.09s CPU      0.10s WALL (     332 calls)
     vloc_psi     :      1.67s CPU      1.79s WALL (     332 calls)
     add_vuspsi   :      0.06s CPU      0.06s WALL (     332 calls)

     General routines
     calbec       :      0.14s CPU      0.15s WALL (     464 calls)
     fft          :      0.28s CPU      0.28s WALL (     105 calls)
     ffts         :      0.07s CPU      0.07s WALL (      33 calls)
     fftw         :      1.72s CPU      1.84s WALL (    9264 calls)
     interpolate  :      0.07s CPU      0.07s WALL (      17 calls)

     Parallel routines

     PWSCF        :      8.95s CPU     10.09s WALL


   This run was terminated on:   1:40:12  21Oct2025            

=------------------------------------------------------------------------------=
   JOB DONE.
=------------------------------------------------------------------------------=
