
     Program PWSCF v.7.4.1 starts on 21Oct2025 at 19:20:10 

     This program is part of the open-source Quantum ESPRESSO suite
     for quantum simulation of materials; please cite
         "P. Giannozzi et al., J. Phys.:Condens. Matter 21 395502 (2009);
         "P. Giannozzi et al., J. Phys.:Condens. Matter 29 465901 (2017);
         "P. Giannozzi et al., J. Chem. Phys. 152 154105 (2020);
          URL http://www.quantum-espresso.org", 
     in publications or presentations arising from this work. More details at
     http://www.quantum-espresso.org/quote

     Parallel version (MPI), running on     2 processors

     MPI processes distributed on     1 nodes
     261 MiB available memory on the printing compute node when the environment starts

     Waiting for input...
     Reading input from standard input
Warning: card &CELL ignored
Warning: card     CELL_DYNAMICS = 'BFGS' ignored
Warning: card / ignored

     Current dimensions of program PWSCF are:
     Max number of different atomic species (ntypx) = 10
     Max number of k-points (npk) =  40000
     Max angular momentum in pseudopotentials (lmaxx) =  4
     file Cu.pz-d-rrkjus.UPF: wavefunction(s)  3D renormalized
     Message from routine setup:
     using ibrav=0 with symmetry is DISCOURAGED, use correct ibrav instead

     R & G space division:  proc/nbgrp/npool/nimage =       2
     Subspace diagonalization in iterative solution of the eigenvalue problem:
     a serial algorithm will be used


     Parallelization info
     --------------------
     sticks:   dense  smooth     PW     G-vecs:    dense   smooth      PW
     Min         348     174     54                 9078     3218     584
     Max         349     175     55                 9081     3221     587
     Sum         697     349    109                18159     6439    1171

     Using Slab Decomposition



     bravais-lattice index     =            0
     lattice parameter (alat)  =       5.2358  a.u.
     unit-cell volume          =     187.8922 (a.u.)^3
     number of atoms/cell      =            2
     number of atomic types    =            2
     number of electrons       =        22.00
     number of Kohn-Sham states=           15
     kinetic-energy cutoff     =      40.0000  Ry
     charge density cutoff     =     320.0000  Ry
     scf convergence threshold =      1.0E-07
     mixing beta               =       0.7000
     number of iterations used =            8  plain     mixing
     Exchange-correlation=  SLA  PZ   NOGX NOGC
                           (   1   1   0   0   0   0   0)

     celldm(1)=   5.235808  celldm(2)=   0.000000  celldm(3)=   0.000000
     celldm(4)=   0.000000  celldm(5)=   0.000000  celldm(6)=   0.000000

     crystal axes: (cart. coord. in units of alat)
               a(1) = (   1.000000   0.000000   0.000000 )  
               a(2) = (   0.000000   1.000000   0.000000 )  
               a(3) = (   0.000000   0.000000   1.309054 )  

     reciprocal axes: (cart. coord. in units 2 pi/alat)
               b(1) = (  1.000000  0.000000  0.000000 )  
               b(2) = (  0.000000  1.000000  0.000000 )  
               b(3) = (  0.000000  0.000000  0.763910 )  


     PseudoPot. # 1 for Au read from file:
     /home/bond/Software/QE/qe-7.4.1/pseudo/Au.pz-d-rrkjus.UPF
     MD5 check sum: 424ffd4ac9c90487cbadcd287136c95b
     Pseudo is Ultrasoft, Zval = 11.0
     Generated by new atomic code, or converted to UPF format
     Using radial grid of 1279 points,  3 beta functions with: 
                l(1) =   2
                l(2) =   2
                l(3) =   1
     Q(r) pseudized with 0 coefficients 


     PseudoPot. # 2 for Cu read from file:
     /home/bond/Software/QE/qe-7.4.1/pseudo/Cu.pz-d-rrkjus.UPF
     MD5 check sum: fd38ae683e239c95a66f426e1f8e5fc7
     Pseudo is Ultrasoft, Zval = 11.0
     Generated by new atomic code, or converted to UPF format
     Using radial grid of  899 points,  3 beta functions with: 
                l(1) =   2
                l(2) =   2
                l(3) =   1
     Q(r) pseudized with 0 coefficients 


     atomic species   valence    mass     pseudopotential
     Au               11.00   196.96657     Au( 1.00)
     Cu               11.00    63.54600     Cu( 1.00)

     16 Sym. Ops., with inversion, found



   Cartesian axes

     site n.     atom                  positions (alat units)
         1        Cu     tau(   1) = (   0.0000000   0.0000000   0.0000000  )
         2        Au     tau(   2) = (   0.5000018   0.5000018   0.6545276  )

     number of k points=    40  Methfessel-Paxton smearing, width (Ry)=  0.0200
                       cart. coord. in units 2pi/alat
        k(    1) = (   0.0625000   0.0625000   0.0477444), wk =   0.0312500
        k(    2) = (   0.0625000   0.0625000   0.1432332), wk =   0.0312500
        k(    3) = (   0.0625000   0.0625000   0.2387220), wk =   0.0312500
        k(    4) = (   0.0625000   0.0625000   0.3342108), wk =   0.0312500
        k(    5) = (   0.0625000   0.1875000   0.0477444), wk =   0.0625000
        k(    6) = (   0.0625000   0.1875000   0.1432332), wk =   0.0625000
        k(    7) = (   0.0625000   0.1875000   0.2387220), wk =   0.0625000
        k(    8) = (   0.0625000   0.1875000   0.3342108), wk =   0.0625000
        k(    9) = (   0.0625000   0.3125000   0.0477444), wk =   0.0625000
        k(   10) = (   0.0625000   0.3125000   0.1432332), wk =   0.0625000
        k(   11) = (   0.0625000   0.3125000   0.2387220), wk =   0.0625000
        k(   12) = (   0.0625000   0.3125000   0.3342108), wk =   0.0625000
        k(   13) = (   0.0625000   0.4375000   0.0477444), wk =   0.0625000
        k(   14) = (   0.0625000   0.4375000   0.1432332), wk =   0.0625000
        k(   15) = (   0.0625000   0.4375000   0.2387220), wk =   0.0625000
        k(   16) = (   0.0625000   0.4375000   0.3342108), wk =   0.0625000
        k(   17) = (   0.1875000   0.1875000   0.0477444), wk =   0.0312500
        k(   18) = (   0.1875000   0.1875000   0.1432332), wk =   0.0312500
        k(   19) = (   0.1875000   0.1875000   0.2387220), wk =   0.0312500
        k(   20) = (   0.1875000   0.1875000   0.3342108), wk =   0.0312500
        k(   21) = (   0.1875000   0.3125000   0.0477444), wk =   0.0625000
        k(   22) = (   0.1875000   0.3125000   0.1432332), wk =   0.0625000
        k(   23) = (   0.1875000   0.3125000   0.2387220), wk =   0.0625000
        k(   24) = (   0.1875000   0.3125000   0.3342108), wk =   0.0625000
        k(   25) = (   0.1875000   0.4375000   0.0477444), wk =   0.0625000
        k(   26) = (   0.1875000   0.4375000   0.1432332), wk =   0.0625000
        k(   27) = (   0.1875000   0.4375000   0.2387220), wk =   0.0625000
        k(   28) = (   0.1875000   0.4375000   0.3342108), wk =   0.0625000
        k(   29) = (   0.3125000   0.3125000   0.0477444), wk =   0.0312500
        k(   30) = (   0.3125000   0.3125000   0.1432332), wk =   0.0312500
        k(   31) = (   0.3125000   0.3125000   0.2387220), wk =   0.0312500
        k(   32) = (   0.3125000   0.3125000   0.3342108), wk =   0.0312500
        k(   33) = (   0.3125000   0.4375000   0.0477444), wk =   0.0625000
        k(   34) = (   0.3125000   0.4375000   0.1432332), wk =   0.0625000
        k(   35) = (   0.3125000   0.4375000   0.2387220), wk =   0.0625000
        k(   36) = (   0.3125000   0.4375000   0.3342108), wk =   0.0625000
        k(   37) = (   0.4375000   0.4375000   0.0477444), wk =   0.0312500
        k(   38) = (   0.4375000   0.4375000   0.1432332), wk =   0.0312500
        k(   39) = (   0.4375000   0.4375000   0.2387220), wk =   0.0312500
        k(   40) = (   0.4375000   0.4375000   0.3342108), wk =   0.0312500

     Dense  grid:    18159 G-vectors     FFT dimensions: (  30,  30,  40)

     Smooth grid:     6439 G-vectors     FFT dimensions: (  24,  24,  27)

     Estimated max dynamical RAM per process >      26.75 MB

     Estimated total dynamical RAM >      53.51 MB

     Initial potential from superposition of free atoms

     starting charge      21.9996, renormalised to      22.0000
     Starting wfcs are   15 randomized atomic wfcs

     total cpu time spent up to now is        1.1 secs

     Self-consistent Calculation

     iteration #  1     ecut=    40.00 Ry     beta= 0.70
     Davidson diagonalization with overlap
     ethr =  1.00E-02,  avg # of iterations =  4.2

     total cpu time spent up to now is        2.0 secs

     total energy              =    -154.62325144 Ry
     estimated scf accuracy    <       0.26316949 Ry

     iteration #  2     ecut=    40.00 Ry     beta= 0.70
     Davidson diagonalization with overlap
     ethr =  1.20E-03,  avg # of iterations =  2.0

     total cpu time spent up to now is        2.8 secs

     total energy              =    -154.69909469 Ry
     estimated scf accuracy    <       0.16464117 Ry

     iteration #  3     ecut=    40.00 Ry     beta= 0.70
     Davidson diagonalization with overlap
     ethr =  7.48E-04,  avg # of iterations =  2.0

     total cpu time spent up to now is        3.5 secs

     total energy              =    -154.72833735 Ry
     estimated scf accuracy    <       0.01376293 Ry

     iteration #  4     ecut=    40.00 Ry     beta= 0.70
     Davidson diagonalization with overlap
     ethr =  6.26E-05,  avg # of iterations =  2.8

     total cpu time spent up to now is        4.3 secs

     total energy              =    -154.73152250 Ry
     estimated scf accuracy    <       0.00090949 Ry

     iteration #  5     ecut=    40.00 Ry     beta= 0.70
     Davidson diagonalization with overlap
     ethr =  4.13E-06,  avg # of iterations =  3.6

     total cpu time spent up to now is        5.1 secs

     total energy              =    -154.73174727 Ry
     estimated scf accuracy    <       0.00008345 Ry

     iteration #  6     ecut=    40.00 Ry     beta= 0.70
     Davidson diagonalization with overlap
     ethr =  3.79E-07,  avg # of iterations =  1.6

     total cpu time spent up to now is        5.8 secs

     End of self-consistent calculation

          k = 0.0625 0.0625 0.0477 (   809 PWs)   bands (ev):

     5.7438   8.8287   9.0011  11.3363  11.4322  12.4712  12.6301  13.3325
    13.6694  13.8100  14.0691  18.0707  24.3550  25.7476  26.0069

          k = 0.0625 0.0625 0.1432 (   810 PWs)   bands (ev):

     6.1214   8.8993   9.1445  11.4033  11.4819  12.5310  12.5497  13.2194
    13.3930  13.7835  13.8248  16.2969  26.0312  26.4353  27.3847

          k = 0.0625 0.0625 0.2387 (   808 PWs)   bands (ev):

     6.7815   9.0062   9.3753  11.5084  11.5755  12.4521  12.5365  12.8738
    13.2277  13.4604  13.6136  14.5386  27.4127  27.6443  30.1865

          k = 0.0625 0.0625 0.3342 (   806 PWs)   bands (ev):

     7.4137   9.0879   9.5776  11.5866  11.7035  12.0749  12.4211  12.5835
    13.1635  13.2397  13.4267  13.7042  28.9194  29.0351  30.5465

          k = 0.0625 0.1875 0.0477 (   803 PWs)   bands (ev):

     6.4631   9.1289   9.4860  10.9337  11.5483  12.1502  12.7287  13.0771
    13.3568  13.4840  13.9805  19.6071  22.1604  25.0300  26.9083

          k = 0.0625 0.1875 0.1432 (   807 PWs)   bands (ev):

     6.8143   9.1941   9.6216  10.9214  11.4959  12.1436  12.6922  12.9584
    13.2896  13.3811  13.9497  17.6370  22.8191  27.1123  27.8717

          k = 0.0625 0.1875 0.2387 (   810 PWs)   bands (ev):

     7.4235   9.2839   9.7639  10.9776  11.4864  12.0069  12.6356  12.7538
    13.1895  13.4134  13.8380  15.6733  23.9014  28.1040  28.9085

          k = 0.0625 0.1875 0.3342 (   807 PWs)   bands (ev):

     8.0171   9.3511   9.6766  11.3140  11.5552  11.8786  12.2128  12.6655
    13.2426  13.5725  13.7124  14.3355  25.2693  26.8185  29.7284

          k = 0.0625 0.3125 0.0477 (   796 PWs)   bands (ev):

     7.6267   9.5258  10.2456  10.4313  11.6465  11.8063  12.6725  12.7549
    13.2181  13.6168  13.7299  18.9366  21.6888  25.4983  28.3847

          k = 0.0625 0.3125 0.1432 (   799 PWs)   bands (ev):

     7.8508   9.4390  10.3106  10.6820  11.4567  11.7765  12.6411  12.8067
    13.2745  13.5414  13.8635  18.9041  19.8490  27.0883  28.3572

          k = 0.0625 0.3125 0.2387 (   808 PWs)   bands (ev):

     8.1896   9.2046  10.7573  10.9405  11.3465  11.6102  12.5991  12.7978
    13.3959  13.6181  13.9247  16.8519  20.5732  25.1684  29.7959

          k = 0.0625 0.3125 0.3342 (   808 PWs)   bands (ev):

     8.5075   8.9334  11.0420  11.3457  11.4305  11.4466  12.5108  12.8131
    13.4866  13.8002  14.0581  15.0816  21.7825  23.4569  30.6275

          k = 0.0625 0.4375 0.0477 (   803 PWs)   bands (ev):

     8.6068   9.7736  10.0669  10.7625  11.6469  11.8462  12.5864  12.7131
    13.1589  13.4200  14.3628  16.3114  23.8626  25.9646  27.4245

          k = 0.0625 0.4375 0.1432 (   801 PWs)   bands (ev):

     8.6462   9.2756  10.3703  10.9998  11.6825  11.9740  12.5930  12.6589
    13.4640  13.6695  14.2945  16.4246  21.3957  24.1671  29.8696

          k = 0.0625 0.4375 0.2387 (   801 PWs)   bands (ev):

     8.6322   8.8949  10.8951  10.9658  11.4999  12.5768  12.6744  12.8206
    13.7647  13.8764  14.2125  16.3545  19.5740  22.3296  31.2792

          k = 0.0625 0.4375 0.3342 (   796 PWs)   bands (ev):

     8.5318   8.7672  10.8813  11.3333  11.3990  12.7342  13.0604  13.3157
    13.7170  13.8706  14.5432  15.5080  19.0946  21.0700  31.7351

          k = 0.1875 0.1875 0.0477 (   802 PWs)   bands (ev):

     7.1647   9.6461   9.6922  10.7768  11.1536  11.7130  12.8958  12.9097
    13.3066  13.4277  14.0952  20.6868  22.9521  23.0836  25.7981

          k = 0.1875 0.1875 0.1432 (   795 PWs)   bands (ev):

     7.5077   9.7414   9.7912  10.7897  10.9878  11.5868  12.8952  12.9713
    13.3483  13.4831  13.8549  18.5808  23.6006  23.7608  28.1531

          k = 0.1875 0.1875 0.2387 (   802 PWs)   bands (ev):

     8.1087   9.8161   9.8530  10.8068  10.9728  11.4614  12.8443  12.9001
    13.2966  13.5083  13.7709  16.5983  24.5818  24.7277  28.7975

          k = 0.1875 0.1875 0.3342 (   804 PWs)   bands (ev):

     8.7700   9.5457   9.8734  10.8173  11.2473  11.6223  12.3773  12.9744
    13.1754  13.2024  14.2679  15.1990  25.6822  26.0506  27.1003

          k = 0.1875 0.3125 0.0477 (   798 PWs)   bands (ev):

     8.2424   9.9160  10.1955  10.3343  10.9418  11.6028  12.9737  13.0471
    13.2795  13.5991  13.9967  19.6500  22.3598  24.5164  26.3533

          k = 0.1875 0.3125 0.1432 (   803 PWs)   bands (ev):

     8.4872   9.9333  10.2179  10.4401  10.8658  11.4986  12.9178  13.0734
    13.4363  13.7002  13.8620  19.9134  20.2689  25.2127  27.7170

          k = 0.1875 0.3125 0.2387 (   801 PWs)   bands (ev):

     8.8322   9.7246  10.4803  10.6589  10.8883  11.4183  12.7840  13.0354
    13.3399  13.6765  14.2152  17.8029  21.1892  25.5799  26.0867

          k = 0.1875 0.3125 0.3342 (   805 PWs)   bands (ev):

     9.0895   9.5367  10.5324  10.7244  11.3168  11.5661  12.4775  12.9965
    13.2751  13.4819  14.8728  16.1961  22.4260  23.9178  26.9796

          k = 0.1875 0.4375 0.0477 (   800 PWs)   bands (ev):

     9.1935   9.7496   9.9109  10.3143  10.8755  12.2487  13.1038  13.1616
    13.5135  13.7450  14.4281  16.7286  24.2709  26.4001  26.6315

          k = 0.1875 0.4375 0.1432 (   800 PWs)   bands (ev):

     9.1379   9.7014  10.0783  10.4408  10.8815  12.2942  12.8786  12.9978
    13.8052  13.8501  14.6535  17.0957  21.8515  24.5286  27.2496

          k = 0.1875 0.4375 0.2387 (   806 PWs)   bands (ev):

     8.9633   9.7011  10.1592  10.8531  10.9487  12.4327  12.6946  12.9642
    13.8057  13.8285  15.2306  17.5614  19.9040  22.6347  27.7677

          k = 0.1875 0.4375 0.3342 (   804 PWs)   bands (ev):

     8.8356   9.6817  10.1730  10.8236  11.5548  12.5932  12.6040  12.9615
    13.6476  13.7327  16.0098  17.1330  19.4592  21.2357  28.3644

          k = 0.3125 0.3125 0.0477 (   795 PWs)   bands (ev):

     8.7608   9.7597  10.0613  10.2093  11.3222  12.0288  13.2254  13.3883
    13.4520  13.6944  14.1300  19.8691  22.0548  23.9246  26.6666

          k = 0.3125 0.3125 0.1432 (   804 PWs)   bands (ev):

     8.9513   9.9671  10.0777  10.1837  11.2942  11.7547  13.1268  13.3727
    13.4314  13.8924  14.2348  20.6248  21.0419  22.7945  27.5692

          k = 0.3125 0.3125 0.2387 (   800 PWs)   bands (ev):

     9.2033   9.8642  10.1049  10.7039  11.2452  11.5564  12.9176  13.3079
    13.3314  13.6376  14.9879  19.0878  21.9056  23.0170  26.0972

          k = 0.3125 0.3125 0.3342 (   803 PWs)   bands (ev):

     9.3844   9.7255  10.1279  11.2024  11.2339  11.7358  12.4470  13.2063
    13.2697  13.5224  15.7908  17.5393  23.4990  23.5501  24.8464

          k = 0.3125 0.4375 0.0477 (   798 PWs)   bands (ev):

     8.7499   9.6831   9.7838  10.0581  11.8025  13.0391  13.4651  13.5350
    13.8519  14.0448  14.6782  17.3232  23.2147  25.5241  25.9291

          k = 0.3125 0.4375 0.1432 (   803 PWs)   bands (ev):

     8.8548   9.6428  10.0627  10.1580  11.6602  12.6892  13.2193  13.3930
    13.8508  13.9297  15.4549  18.0141  22.5462  24.2584  24.9806

          k = 0.3125 0.4375 0.2387 (   802 PWs)   bands (ev):

     9.0242   9.5487  10.0939  10.8089  11.4477  12.4086  12.9059  13.3117
    13.7461  13.7880  16.4131  19.0519  20.7731  23.2755  24.5541

          k = 0.3125 0.4375 0.3342 (   807 PWs)   bands (ev):

     9.2128   9.3997  10.1297  11.1676  11.7222  12.2937  12.4589  13.2322
    13.6083  13.7311  17.4049  19.0519  20.3594  21.8232  25.1874

          k = 0.4375 0.4375 0.0477 (   802 PWs)   bands (ev):

     8.3116   9.5958   9.6098   9.7849  13.3629  13.7147  13.7758  13.8336
    13.8915  14.1370  15.5730  17.1750  21.5455  23.7453  26.2532

          k = 0.4375 0.4375 0.1432 (   808 PWs)   bands (ev):

     8.4455   9.6233   9.6277  10.1573  12.9882  13.1035  13.5740  13.6632
    13.8314  13.9440  16.6788  18.2153  21.6812  23.3607  24.8235

          k = 0.4375 0.4375 0.2387 (   810 PWs)   bands (ev):

     8.6551   9.6362   9.6807  10.8325  12.4783  12.4896  13.2129  13.4773
    13.8271  13.8794  17.9323  19.7175  21.7554  22.7734  23.3557

          k = 0.4375 0.4375 0.3342 (   816 PWs)   bands (ev):

     8.8255   9.6330   9.7257  11.6459  12.1544  12.1580  12.6397  13.3332
    13.8241  13.8652  19.1040  20.9041  21.3348  22.2950  23.3041

     the Fermi energy is    15.6900 ev

!    total energy              =    -154.73176212 Ry
     estimated scf accuracy    <       0.00000009 Ry
     smearing contrib. (-TS)   =      -0.00003381 Ry
     internal energy E=F+TS    =    -154.73172831 Ry

     The total energy is F=E-TS. E is the sum of the following terms:
     one-electron contribution =      -4.09907085 Ry
     hartree contribution      =      27.66333160 Ry
     xc contribution           =     -24.54938601 Ry
     ewald contribution        =    -153.74660305 Ry

     convergence has been achieved in   6 iterations


     Computing stress (Cartesian axis) and pressure

          total   stress  (Ry/bohr**3)                   (kbar)     P=        0.27
   0.00002722   0.00000000   0.00000000            4.00        0.00        0.00
   0.00000000   0.00002722   0.00000000            0.00        4.00        0.00
   0.00000000   0.00000000  -0.00004884            0.00        0.00       -7.18

     Message from routine punch:
     Nothing written, as per user request (disk_io='none')

     init_run     :      0.90s CPU      0.92s WALL (       1 calls)
     electrons    :      4.41s CPU      4.70s WALL (       1 calls)
     stress       :      0.61s CPU      0.61s WALL (       1 calls)

     Called by init_run:
     wfcinit      :      0.20s CPU      0.21s WALL (       1 calls)
     potinit      :      0.17s CPU      0.17s WALL (       1 calls)
     hinit0       :      0.45s CPU      0.45s WALL (       1 calls)

     Called by electrons:
     c_bands      :      3.36s CPU      3.58s WALL (       6 calls)
     sum_band     :      0.81s CPU      0.87s WALL (       6 calls)
     v_of_rho     :      0.01s CPU      0.01s WALL (       7 calls)
     newd         :      0.26s CPU      0.27s WALL (       7 calls)
     mix_rho      :      0.01s CPU      0.01s WALL (       6 calls)

     Called by c_bands:
     init_us_2    :      0.09s CPU      0.09s WALL (     560 calls)
     cegterg      :      3.20s CPU      3.41s WALL (     240 calls)

     Called by *egterg:
     cdiaghg      :      0.26s CPU      0.28s WALL (     885 calls)
     h_psi        :      2.73s CPU      2.91s WALL (     925 calls)
     s_psi        :      0.04s CPU      0.04s WALL (     925 calls)
     g_psi        :      0.01s CPU      0.01s WALL (     645 calls)

     Called by h_psi:
     h_psi:calbec :      0.11s CPU      0.12s WALL (     925 calls)
     vloc_psi     :      2.55s CPU      2.72s WALL (     925 calls)
     add_vuspsi   :      0.05s CPU      0.06s WALL (     925 calls)

     General routines
     calbec       :      0.18s CPU      0.19s WALL (    1685 calls)
     fft          :      0.17s CPU      0.17s WALL (      42 calls)
     ffts         :      0.13s CPU      0.13s WALL (      13 calls)
     fftw         :      2.61s CPU      2.80s WALL (   22202 calls)
     interpolate  :      0.13s CPU      0.13s WALL (       7 calls)

     Parallel routines

     PWSCF        :      6.08s CPU      6.41s WALL


   This run was terminated on:  19:20:16  21Oct2025            

=------------------------------------------------------------------------------=
   JOB DONE.
=------------------------------------------------------------------------------=
