
     Program PWSCF v.7.4.1 starts on  8Oct2025 at 21:43:32 

     This program is part of the open-source Quantum ESPRESSO suite
     for quantum simulation of materials; please cite
         "P. Giannozzi et al., J. Phys.:Condens. Matter 21 395502 (2009);
         "P. Giannozzi et al., J. Phys.:Condens. Matter 29 465901 (2017);
         "P. Giannozzi et al., J. Chem. Phys. 152 154105 (2020);
          URL http://www.quantum-espresso.org", 
     in publications or presentations arising from this work. More details at
     http://www.quantum-espresso.org/quote

     Parallel version (MPI), running on     1 processors

     MPI processes distributed on     1 nodes
     858 MiB available memory on the printing compute node when the environment starts

     Waiting for input...
     Reading input from standard input
Warning: card &CELL ignored
Warning: card / ignored

     Current dimensions of program PWSCF are:
     Max number of different atomic species (ntypx) = 10
     Max number of k-points (npk) =  40000
     Max angular momentum in pseudopotentials (lmaxx) =  4
     Message from routine setup:
     using ibrav=0 with symmetry is DISCOURAGED, use correct ibrav instead

     Subspace diagonalization in iterative solution of the eigenvalue problem:
     a serial algorithm will be used


     G-vector sticks info
     --------------------
     sticks:   dense  smooth     PW     G-vecs:    dense   smooth      PW
     Sum         547     547    169                 8393     8393    1471

     Using Slab Decomposition



     bravais-lattice index     =            0
     lattice parameter (alat)  =       7.5364  a.u.
     unit-cell volume          =     302.6732 (a.u.)^3
     number of atoms/cell      =            2
     number of atomic types    =            1
     number of electrons       =        28.00
     number of Kohn-Sham states=           14
     kinetic-energy cutoff     =      35.0000  Ry
     charge density cutoff     =     140.0000  Ry
     scf convergence threshold =      1.0E-07
     mixing beta               =       0.5000
     number of iterations used =            8  plain     mixing
     Exchange-correlation=  SLA  PZ   NOGX NOGC
                           (   1   1   0   0   0   0   0)

     celldm(1)=   7.536383  celldm(2)=   0.000000  celldm(3)=   0.000000
     celldm(4)=   0.000000  celldm(5)=   0.000000  celldm(6)=   0.000000

     crystal axes: (cart. coord. in units of alat)
               a(1) = (   0.000000   0.707107   0.707107 )  
               a(2) = (   0.707107   0.000000   0.707107 )  
               a(3) = (   0.707107   0.707107   0.000000 )  

     reciprocal axes: (cart. coord. in units 2 pi/alat)
               b(1) = ( -0.707107  0.707107  0.707107 )  
               b(2) = (  0.707107 -0.707107  0.707107 )  
               b(3) = (  0.707107  0.707107 -0.707107 )  


     PseudoPot. # 1 for Ge read from file:
     /home/bond/Software/QE/qe-7.4.1/pseudo/ge_lda_v1.4.uspp.F.UPF
     MD5 check sum: bf9d52b59cc8a669818bb2b52e0c2ba0
     Pseudo is Ultrasoft + core correction, Zval = 14.0
     Generated by new atomic code, or converted to UPF format
     Using radial grid of  873 points,  6 beta functions with: 
                l(1) =   0
                l(2) =   0
                l(3) =   1
                l(4) =   1
                l(5) =   2
                l(6) =   2
     Q(r) pseudized with  8 coefficients,  rinner =    1.400   1.400   1.400
                                                       1.400   1.400

     atomic species   valence    mass     pseudopotential
     Ge               14.00    72.63000     Ge( 1.00)

     48 Sym. Ops., with inversion, found (24 have fractional translation)



   Cartesian axes

     site n.     atom                  positions (alat units)
         1        Ge     tau(   1) = (   0.0000000   0.0000000   0.0000000  )
         2        Ge     tau(   2) = (   0.3535534   0.3535534   0.3535534  )

     number of k points=    47
                       cart. coord. in units 2pi/alat
        k(    1) = (   0.0000000   0.0000000   0.0000000), wk =   0.0020000
        k(    2) = (   0.0707107   0.0707107  -0.0707107), wk =   0.0160000
        k(    3) = (   0.1414214   0.1414214  -0.1414214), wk =   0.0160000
        k(    4) = (   0.2121320   0.2121320  -0.2121320), wk =   0.0160000
        k(    5) = (   0.2828427   0.2828427  -0.2828427), wk =   0.0160000
        k(    6) = (  -0.3535534  -0.3535534   0.3535534), wk =   0.0080000
        k(    7) = (   0.1414214   0.0000000   0.0000000), wk =   0.0120000
        k(    8) = (   0.2121320   0.0707107  -0.0707107), wk =   0.0480000
        k(    9) = (   0.2828427   0.1414214  -0.1414214), wk =   0.0480000
        k(   10) = (   0.3535534   0.2121320  -0.2121320), wk =   0.0480000
        k(   11) = (  -0.2828427  -0.4242641   0.4242641), wk =   0.0480000
        k(   12) = (  -0.2121320  -0.3535534   0.3535534), wk =   0.0480000
        k(   13) = (  -0.1414214  -0.2828427   0.2828427), wk =   0.0480000
        k(   14) = (  -0.0707107  -0.2121320   0.2121320), wk =   0.0480000
        k(   15) = (   0.0000000  -0.1414214   0.1414214), wk =   0.0240000
        k(   16) = (   0.2828427   0.0000000   0.0000000), wk =   0.0120000
        k(   17) = (   0.3535534   0.0707107  -0.0707107), wk =   0.0480000
        k(   18) = (   0.4242641   0.1414214  -0.1414214), wk =   0.0480000
        k(   19) = (  -0.2121320  -0.4949747   0.4949747), wk =   0.0480000
        k(   20) = (  -0.1414214  -0.4242641   0.4242641), wk =   0.0480000
        k(   21) = (  -0.0707107  -0.3535534   0.3535534), wk =   0.0480000
        k(   22) = (   0.0000000  -0.2828427   0.2828427), wk =   0.0240000
        k(   23) = (   0.4242641   0.0000000   0.0000000), wk =   0.0120000
        k(   24) = (   0.4949747   0.0707107  -0.0707107), wk =   0.0480000
        k(   25) = (  -0.1414214  -0.5656854   0.5656854), wk =   0.0480000
        k(   26) = (  -0.0707107  -0.4949747   0.4949747), wk =   0.0480000
        k(   27) = (  -0.0000000  -0.4242641   0.4242641), wk =   0.0240000
        k(   28) = (   0.5656854   0.0000000   0.0000000), wk =   0.0120000
        k(   29) = (  -0.0707107  -0.6363961   0.6363961), wk =   0.0480000
        k(   30) = (   0.0000000  -0.5656854   0.5656854), wk =   0.0240000
        k(   31) = (  -0.7071068   0.0000000   0.0000000), wk =   0.0060000
        k(   32) = (   0.2828427   0.1414214   0.0000000), wk =   0.0480000
        k(   33) = (   0.3535534   0.2121320  -0.0707107), wk =   0.0960000
        k(   34) = (  -0.2828427  -0.4242641   0.5656854), wk =   0.0960000
        k(   35) = (  -0.2121320  -0.3535534   0.4949747), wk =   0.0480000
        k(   36) = (   0.4242641   0.1414214  -0.0000000), wk =   0.0480000
        k(   37) = (  -0.2121320  -0.4949747   0.6363961), wk =   0.0960000
        k(   38) = (  -0.1414214  -0.4242641   0.5656854), wk =   0.0960000
        k(   39) = (  -0.0707107  -0.3535534   0.4949747), wk =   0.0960000
        k(   40) = (   0.0000000  -0.2828427   0.4242641), wk =   0.0480000
        k(   41) = (  -0.1414214  -0.5656854   0.7071068), wk =   0.0480000
        k(   42) = (  -0.0707107  -0.4949747   0.6363961), wk =   0.0960000
        k(   43) = (  -0.0000000  -0.4242641   0.5656854), wk =   0.0480000
        k(   44) = (  -0.7071068   0.1414214   0.0000000), wk =   0.0240000
        k(   45) = (  -0.1414214  -0.4242641   0.7071068), wk =   0.0480000
        k(   46) = (  -0.0707107  -0.3535534   0.6363961), wk =   0.0480000
        k(   47) = (  -0.7071068   0.2828427   0.0000000), wk =   0.0240000

     Dense  grid:     8393 G-vectors     FFT dimensions: (  32,  32,  32)

     Estimated max dynamical RAM per process >      43.86 MB

     Check: negative core charge=   -0.000015

     Initial potential from superposition of free atoms

     starting charge      27.9986, renormalised to      28.0000
     Starting wfcs are   18 randomized atomic wfcs

     total cpu time spent up to now is        1.0 secs

     Self-consistent Calculation

     iteration #  1     ecut=    35.00 Ry     beta= 0.50
     Davidson diagonalization with overlap
     ethr =  1.00E-02,  avg # of iterations =  1.7

     Threshold (ethr) on eigenvalues was too large:
     Diagonalizing with lowered threshold

     Davidson diagonalization with overlap
     ethr =  1.18E-04,  avg # of iterations =  2.0

     total cpu time spent up to now is        2.8 secs

     total energy              =    -426.16997472 Ry
     estimated scf accuracy    <       0.03502192 Ry

     iteration #  2     ecut=    35.00 Ry     beta= 0.50
     Davidson diagonalization with overlap
     ethr =  1.25E-04,  avg # of iterations =  1.0

     total cpu time spent up to now is        3.6 secs

     total energy              =    -426.16865802 Ry
     estimated scf accuracy    <       0.00613955 Ry

     iteration #  3     ecut=    35.00 Ry     beta= 0.50
     Davidson diagonalization with overlap
     ethr =  2.19E-05,  avg # of iterations =  2.0

     total cpu time spent up to now is        4.6 secs

     total energy              =    -426.16912291 Ry
     estimated scf accuracy    <       0.00006845 Ry

     iteration #  4     ecut=    35.00 Ry     beta= 0.50
     Davidson diagonalization with overlap
     ethr =  2.44E-07,  avg # of iterations =  3.7

     total cpu time spent up to now is        5.8 secs

     total energy              =    -426.16914621 Ry
     estimated scf accuracy    <       0.00000302 Ry

     iteration #  5     ecut=    35.00 Ry     beta= 0.50
     Davidson diagonalization with overlap
     ethr =  1.08E-08,  avg # of iterations =  3.5

     total cpu time spent up to now is        7.0 secs

     End of self-consistent calculation

          k = 0.0000 0.0000 0.0000 (  1067 PWs)   bands (ev):

   -16.6407 -16.6407 -16.6407 -16.6040 -16.6040 -16.3884 -16.3884 -16.3884
   -16.3728 -16.3728  -4.6155   8.1699   8.2754   8.2754

          k = 0.0707 0.0707-0.0707 (  1040 PWs)   bands (ev):

   -16.6462 -16.6462 -16.6385 -16.5953 -16.5953 -16.3964 -16.3964 -16.3897
   -16.3653 -16.3653  -4.4925   6.3502   8.0418   8.0418

          k = 0.1414 0.1414-0.1414 (  1046 PWs)   bands (ev):

   -16.6557 -16.6557 -16.6348 -16.5806 -16.5806 -16.4084 -16.4084 -16.3947
   -16.3562 -16.3562  -4.1303   4.4051   7.5958   7.5958

          k = 0.2121 0.2121-0.2121 (  1059 PWs)   bands (ev):

   -16.6621 -16.6621 -16.6293 -16.5688 -16.5688 -16.4176 -16.4176 -16.4018
   -16.3502 -16.3502  -3.5592   2.6318   7.1998   7.1998

          k = 0.2828 0.2828-0.2828 (  1056 PWs)   bands (ev):

   -16.6652 -16.6652 -16.6242 -16.5624 -16.5624 -16.4216 -16.4216 -16.4066
   -16.3470 -16.3470  -2.8869   1.2167   6.9446   6.9446

          k =-0.3536-0.3536 0.3536 (  1056 PWs)   bands (ev):

   -16.6659 -16.6659 -16.6233 -16.5604 -16.5604 -16.4225 -16.4225 -16.4088
   -16.3460 -16.3460  -2.5070   0.5860   6.8575   6.8575

          k = 0.1414 0.0000 0.0000 (  1038 PWs)   bands (ev):

   -16.6464 -16.6438 -16.6438 -16.5978 -16.5868 -16.4134 -16.3815 -16.3815
   -16.3780 -16.3606  -4.4511   6.2955   7.6395   7.6395

          k = 0.2121 0.0707-0.0707 (  1039 PWs)   bands (ev):

   -16.6569 -16.6509 -16.6395 -16.5869 -16.5706 -16.4301 -16.3932 -16.3821
   -16.3671 -16.3531  -4.1671   4.8344   7.1572   7.1796

          k = 0.2828 0.1414-0.1414 (  1054 PWs)   bands (ev):

   -16.6668 -16.6586 -16.6307 -16.5738 -16.5571 -16.4414 -16.4064 -16.3915
   -16.3573 -16.3446  -3.6600   3.1301   6.6409   6.7898

          k = 0.3536 0.2121-0.2121 (  1059 PWs)   bands (ev):

   -16.6730 -16.6640 -16.6203 -16.5631 -16.5508 -16.4437 -16.4177 -16.4034
   -16.3496 -16.3385  -2.9984   1.6247   6.1831   6.6043

          k =-0.2828-0.4243 0.4243 (  1060 PWs)   bands (ev):

   -16.6751 -16.6675 -16.6133 -16.5551 -16.5530 -16.4362 -16.4267 -16.4137
   -16.3441 -16.3368  -2.4457   0.6766   5.8866   6.6173

          k =-0.2121-0.3536 0.3536 (  1060 PWs)   bands (ev):

   -16.6732 -16.6693 -16.6123 -16.5599 -16.5510 -16.4335 -16.4228 -16.4188
   -16.3413 -16.3399  -2.5854   0.8980   5.7843   6.8209

          k =-0.1414-0.2828 0.2828 (  1057 PWs)   bands (ev):

   -16.6686 -16.6676 -16.6189 -16.5681 -16.5536 -16.4343 -16.4204 -16.4047
   -16.3477 -16.3416  -3.2299   2.0932   5.9006   7.1856

          k =-0.0707-0.2121 0.2121 (  1052 PWs)   bands (ev):

   -16.6642 -16.6589 -16.6292 -16.5780 -16.5645 -16.4268 -16.4147 -16.3879
   -16.3598 -16.3458  -3.8533   3.6782   6.2707   7.6450

          k = 0.0000-0.1414 0.1414 (  1037 PWs)   bands (ev):

   -16.6555 -16.6485 -16.6373 -16.5893 -16.5807 -16.4125 -16.4046 -16.3756
   -16.3735 -16.3539  -4.2891   5.2780   7.0012   8.0340

          k = 0.2828 0.0000 0.0000 (  1054 PWs)   bands (ev):

   -16.6541 -16.6541 -16.6498 -16.5806 -16.5528 -16.4543 -16.3939 -16.3672
   -16.3672 -16.3570  -3.9612   4.4085   6.6507   6.6507

          k = 0.3536 0.0707-0.0707 (  1057 PWs)   bands (ev):

   -16.6668 -16.6604 -16.6381 -16.5676 -16.5350 -16.4729 -16.4075 -16.3757
   -16.3571 -16.3466  -3.5244   3.2260   6.0374   6.2668

          k = 0.4243 0.1414-0.1414 (  1060 PWs)   bands (ev):

   -16.6783 -16.6664 -16.6203 -16.5539 -16.5251 -16.4809 -16.4227 -16.3949
   -16.3474 -16.3336  -2.8994   1.8958   5.3310   6.0786

          k =-0.2121-0.4950 0.4950 (  1067 PWs)   bands (ev):

   -16.6857 -16.6709 -16.6041 -16.5416 -16.5283 -16.4744 -16.4375 -16.4129
   -16.3403 -16.3257  -2.2503   0.8250   4.7964   6.1080

          k =-0.1414-0.4243 0.4243 (  1073 PWs)   bands (ev):

   -16.6870 -16.6741 -16.5954 -16.5420 -16.5331 -16.4567 -16.4496 -16.4234
   -16.3360 -16.3249  -2.1260   0.6498   4.5189   6.3485

          k =-0.0707-0.3536 0.3536 (  1059 PWs)   bands (ev):

   -16.6814 -16.6742 -16.5982 -16.5583 -16.5334 -16.4525 -16.4344 -16.4226
   -16.3351 -16.3319  -2.6972   1.5294   4.5665   6.7645

          k = 0.0000-0.2828 0.2828 (  1057 PWs)   bands (ev):

   -16.6711 -16.6708 -16.6134 -16.5702 -16.5461 -16.4434 -16.4242 -16.4027
   -16.3460 -16.3383  -3.3548   2.7047   5.0899   7.2665

          k = 0.4243 0.0000 0.0000 (  1046 PWs)   bands (ev):

   -16.6649 -16.6649 -16.6411 -16.5543 -16.5112 -16.5003 -16.4183 -16.3678
   -16.3500 -16.3500  -3.1568   2.5882   5.8470   5.8470

          k = 0.4950 0.0707-0.0707 (  1050 PWs)   bands (ev):

   -16.6755 -16.6697 -16.6242 -16.5387 -16.5182 -16.4935 -16.4345 -16.3873
   -16.3423 -16.3362  -2.5828   1.6115   5.2175   5.6198

          k =-0.1414-0.5657 0.5657 (  1062 PWs)   bands (ev):

   -16.6872 -16.6737 -16.6017 -16.5234 -16.5218 -16.4883 -16.4519 -16.4115
   -16.3361 -16.3232  -1.8985   0.6661   4.4161   5.6163

          k =-0.0707-0.4950 0.4950 (  1060 PWs)   bands (ev):

   -16.6932 -16.6761 -16.5880 -16.5118 -16.5092 -16.4977 -16.4666 -16.4256
   -16.3322 -16.3168  -1.5504   0.2578   3.8942   5.8358

          k =-0.0000-0.4243 0.4243 (  1063 PWs)   bands (ev):

   -16.6913 -16.6769 -16.5869 -16.5345 -16.5152 -16.4684 -16.4671 -16.4272
   -16.3319 -16.3199  -2.0343   0.8188   3.8768   6.2470

          k = 0.5657 0.0000 0.0000 (  1058 PWs)   bands (ev):

   -16.6728 -16.6728 -16.6202 -16.5465 -16.5219 -16.4679 -16.4501 -16.3920
   -16.3371 -16.3371  -2.0589   0.8672   5.3411   5.3411

          k =-0.0707-0.6364 0.6364 (  1061 PWs)   bands (ev):

   -16.6807 -16.6755 -16.5991 -16.5605 -16.5043 -16.4681 -16.4533 -16.4142
   -16.3331 -16.3282  -1.3773   0.0534   4.8003   5.2847

          k = 0.0000-0.5657 0.5657 (  1059 PWs)   bands (ev):

   -16.6903 -16.6767 -16.5859 -16.5435 -16.4933 -16.4813 -16.4674 -16.4273
   -16.3313 -16.3188  -0.9830  -0.3209   4.0954   5.4574

          k =-0.7071 0.0000 0.0000 (  1034 PWs)   bands (ev):

   -16.6755 -16.6755 -16.5871 -16.5871 -16.4854 -16.4854 -16.4258 -16.4258
   -16.3316 -16.3316  -0.7013  -0.7013   5.1692   5.1692

          k = 0.2828 0.1414 0.0000 (  1054 PWs)   bands (ev):

   -16.6645 -16.6592 -16.6333 -16.5772 -16.5538 -16.4482 -16.4038 -16.3826
   -16.3609 -16.3462  -3.8076   3.7946   6.0271   7.1016

          k = 0.3536 0.2121-0.0707 (  1057 PWs)   bands (ev):

   -16.6733 -16.6678 -16.6183 -16.5653 -16.5398 -16.4598 -16.4152 -16.4006
   -16.3471 -16.3382  -3.2394   2.4444   5.3396   6.7203

          k =-0.2828-0.4243 0.5657 (  1059 PWs)   bands (ev):

   -16.6810 -16.6717 -16.6043 -16.5542 -16.5350 -16.4604 -16.4268 -16.4176
   -16.3396 -16.3308  -2.5644   1.1887   5.0146   6.3769

          k =-0.2121-0.3536 0.4950 (  1060 PWs)   bands (ev):

   -16.6838 -16.6728 -16.5991 -16.5467 -16.5376 -16.4546 -16.4383 -16.4218
   -16.3377 -16.3276  -2.1748   0.5911   4.9204   6.2458

          k = 0.4243 0.1414-0.0000 (  1052 PWs)   bands (ev):

   -16.6721 -16.6707 -16.6246 -16.5541 -16.5166 -16.4916 -16.4210 -16.3891
   -16.3439 -16.3396  -3.0211   2.2835   5.2719   5.9908

          k =-0.2121-0.4950 0.6364 (  1057 PWs)   bands (ev):

   -16.6833 -16.6753 -16.6035 -16.5402 -16.5085 -16.4976 -16.4371 -16.4113
   -16.3357 -16.3277  -2.3584   1.2352   4.6263   5.6791

          k =-0.1414-0.4243 0.5657 (  1060 PWs)   bands (ev):

   -16.6904 -16.6776 -16.5874 -16.5293 -16.5111 -16.4906 -16.4536 -16.4264
   -16.3319 -16.3199  -1.7903   0.4708   4.2056   5.6237

          k =-0.0707-0.3536 0.4950 (  1064 PWs)   bands (ev):

   -16.6901 -16.6785 -16.5855 -16.5362 -16.5133 -16.4815 -16.4533 -16.4291
   -16.3309 -16.3211  -1.9688   0.7020   4.0882   5.8559

          k = 0.0000-0.2828 0.4243 (  1055 PWs)   bands (ev):

   -16.6820 -16.6765 -16.5979 -16.5532 -16.5220 -16.4746 -16.4277 -16.4232
   -16.3330 -16.3308  -2.6296   1.5919   4.4161   6.2896

          k =-0.1414-0.5657 0.7071 (  1063 PWs)   bands (ev):

   -16.6789 -16.6786 -16.6054 -16.5352 -16.5226 -16.4768 -16.4515 -16.4075
   -16.3314 -16.3314  -1.9582   0.7753   4.8539   5.1999

          k =-0.0707-0.4950 0.6364 (  1064 PWs)   bands (ev):

   -16.6893 -16.6806 -16.5815 -16.5365 -16.5072 -16.4736 -16.4694 -16.4307
   -16.3283 -16.3202  -1.2899   0.0315   4.2220   5.1057

          k =-0.0000-0.4243 0.5657 (  1064 PWs)   bands (ev):

   -16.6938 -16.6808 -16.5766 -16.5112 -16.5090 -16.4909 -16.4763 -16.4346
   -16.3280 -16.3161  -1.3280   0.0882   3.8396   5.3728

          k =-0.7071 0.1414 0.0000 (  1058 PWs)   bands (ev):

   -16.6816 -16.6816 -16.5744 -16.5744 -16.4865 -16.4865 -16.4384 -16.4384
   -16.3270 -16.3270  -0.6680  -0.6680   4.8206   4.8206

          k =-0.1414-0.4243 0.7071 (  1058 PWs)   bands (ev):

   -16.6887 -16.6834 -16.5789 -16.5245 -16.5136 -16.4899 -16.4582 -16.4330
   -16.3260 -16.3213  -1.6859   0.4949   4.1518   5.1361

          k =-0.0707-0.3536 0.6364 (  1066 PWs)   bands (ev):

   -16.6924 -16.6850 -16.5662 -16.5208 -16.5095 -16.4869 -16.4725 -16.4428
   -16.3242 -16.3174  -1.2297   0.0101   4.0134   4.8959

          k =-0.7071 0.2828 0.0000 (  1060 PWs)   bands (ev):

   -16.6889 -16.6889 -16.5497 -16.5497 -16.4915 -16.4915 -16.4577 -16.4577
   -16.3203 -16.3203  -0.6115  -0.6115   4.3799   4.3799

     highest occupied level (ev):     8.2754

!    total energy              =    -426.16914711 Ry
     estimated scf accuracy    <       0.00000008 Ry

     The total energy is the sum of the following terms:
     one-electron contribution =    -278.08412145 Ry
     hartree contribution      =     164.58836752 Ry
     xc contribution           =    -114.54861660 Ry
     ewald contribution        =    -198.12477657 Ry

     convergence has been achieved in   5 iterations

     Forces acting on atoms (cartesian axes, Ry/au):

     atom    1 type  1   force =    -0.00000000   -0.00000000    0.00000000
     atom    2 type  1   force =     0.00000000    0.00000000   -0.00000000

     Total force =     0.000000     Total SCF correction =     0.000000


     Computing stress (Cartesian axis) and pressure

          total   stress  (Ry/bohr**3)                   (kbar)     P=      -21.32
  -0.00014493   0.00000000   0.00000000          -21.32        0.00        0.00
   0.00000000  -0.00014493   0.00000000            0.00      -21.32        0.00
   0.00000000   0.00000000  -0.00014493            0.00        0.00      -21.32

     Message from routine punch:
     Nothing written, as per user request (disk_io='none')

     init_run     :      0.86s CPU      0.89s WALL (       1 calls)
     electrons    :      5.86s CPU      6.01s WALL (       1 calls)
     forces       :      0.08s CPU      0.08s WALL (       1 calls)
     stress       :      0.50s CPU      0.51s WALL (       1 calls)

     Called by init_run:
     wfcinit      :      0.55s CPU      0.56s WALL (       1 calls)
     potinit      :      0.01s CPU      0.01s WALL (       1 calls)
     hinit0       :      0.27s CPU      0.28s WALL (       1 calls)

     Called by electrons:
     c_bands      :      4.75s CPU      4.86s WALL (       6 calls)
     sum_band     :      0.98s CPU      1.02s WALL (       6 calls)
     v_of_rho     :      0.01s CPU      0.01s WALL (       6 calls)
     newd         :      0.13s CPU      0.14s WALL (       6 calls)
     mix_rho      :      0.00s CPU      0.00s WALL (       6 calls)

     Called by c_bands:
     init_us_2    :      0.19s CPU      0.20s WALL (     705 calls)
     cegterg      :      4.31s CPU      4.40s WALL (     282 calls)

     Called by *egterg:
     cdiaghg      :      0.17s CPU      0.17s WALL (     891 calls)
     h_psi        :      4.06s CPU      4.15s WALL (     985 calls)
     s_psi        :      0.11s CPU      0.11s WALL (     985 calls)
     g_psi        :      0.03s CPU      0.03s WALL (     656 calls)

     Called by h_psi:
     h_psi:calbec :      0.14s CPU      0.15s WALL (     985 calls)
     vloc_psi     :      3.77s CPU      3.86s WALL (     985 calls)
     add_vuspsi   :      0.11s CPU      0.12s WALL (     985 calls)

     General routines
     calbec       :      0.28s CPU      0.28s WALL (    2066 calls)
     fft          :      0.14s CPU      0.15s WALL (      33 calls)
     ffts         :      0.00s CPU      0.00s WALL (       6 calls)
     fftw         :      3.82s CPU      3.90s WALL (   25152 calls)

     Parallel routines

     PWSCF        :      7.39s CPU      7.59s WALL


   This run was terminated on:  21:43:39   8Oct2025            

=------------------------------------------------------------------------------=
   JOB DONE.
=------------------------------------------------------------------------------=
