
     Program PWSCF v.7.4.1 starts on 20Oct2025 at 17:51:11 

     This program is part of the open-source Quantum ESPRESSO suite
     for quantum simulation of materials; please cite
         "P. Giannozzi et al., J. Phys.:Condens. Matter 21 395502 (2009);
         "P. Giannozzi et al., J. Phys.:Condens. Matter 29 465901 (2017);
         "P. Giannozzi et al., J. Chem. Phys. 152 154105 (2020);
          URL http://www.quantum-espresso.org", 
     in publications or presentations arising from this work. More details at
     http://www.quantum-espresso.org/quote

     Parallel version (MPI), running on     2 processors

     MPI processes distributed on     1 nodes
     287 MiB available memory on the printing compute node when the environment starts

     Waiting for input...
     Reading input from standard input

     Current dimensions of program PWSCF are:
     Max number of different atomic species (ntypx) = 10
     Max number of k-points (npk) =  40000
     Max angular momentum in pseudopotentials (lmaxx) =  4
     file Fe.pbe-nd-rrkjus.UPF: wavefunction(s)  4S renormalized
     Message from routine setup:
     using ibrav=0 with symmetry is DISCOURAGED, use correct ibrav instead

     R & G space division:  proc/nbgrp/npool/nimage =       2
     Subspace diagonalization in iterative solution of the eigenvalue problem:
     a serial algorithm will be used


     Parallelization info
     --------------------
     sticks:   dense  smooth     PW     G-vecs:    dense   smooth      PW
     Min         218      86     45                 2887      739     265
     Max         219      87     46                 2888      742     266
     Sum         437     173     91                 5775     1481     531

     Using Slab Decomposition



     bravais-lattice index     =            0
     lattice parameter (alat)  =       4.4187  a.u.
     unit-cell volume          =      66.4137 (a.u.)^3
     number of atoms/cell      =            1
     number of atomic types    =            1
     number of electrons       =         8.00
     number of Kohn-Sham states=            8
     kinetic-energy cutoff     =      30.0000  Ry
     charge density cutoff     =     300.0000  Ry
     scf convergence threshold =      1.0E-07
     mixing beta               =       0.5000
     number of iterations used =            8  plain     mixing
     energy convergence thresh.=      1.0E-04
     force convergence thresh. =      1.0E-03
     press convergence thresh. =      5.0E-01
     Exchange-correlation=  SLA  PW   PBE  PBE
                           (   1   4   3   4   0   0   0)
     nstep                     =           50


     celldm(1)=   4.418687  celldm(2)=   0.000000  celldm(3)=   0.000000
     celldm(4)=   0.000000  celldm(5)=   0.000000  celldm(6)=   0.000000

     crystal axes: (cart. coord. in units of alat)
               a(1) = (  -0.577350   0.577350   0.577350 )  
               a(2) = (   0.577350  -0.577350   0.577350 )  
               a(3) = (   0.577350   0.577350  -0.577350 )  

     reciprocal axes: (cart. coord. in units 2 pi/alat)
               b(1) = (  0.000000  0.866025  0.866025 )  
               b(2) = (  0.866025  0.000000  0.866025 )  
               b(3) = (  0.866025  0.866025  0.000000 )  


     PseudoPot. # 1 for Fe read from file:
     /home/bond/Software/QE/qe-7.4.1/pseudo/Fe.pbe-nd-rrkjus.UPF
     MD5 check sum: 398036227a04b607635f6f5e8dfd8242
     Pseudo is Ultrasoft + core correction, Zval =  8.0
     Generated by new atomic code, or converted to UPF format
     Using radial grid of  957 points,  6 beta functions with: 
                l(1) =   0
                l(2) =   0
                l(3) =   1
                l(4) =   1
                l(5) =   2
                l(6) =   2
     Q(r) pseudized with 0 coefficients 


     atomic species   valence    mass     pseudopotential
     Fe                8.00    55.84500     Fe( 1.00)

     Starting magnetic structure 
     atomic species   magnetization
     Fe              0.700

     48 Sym. Ops., with inversion, found



   Cartesian axes

     site n.     atom                  positions (alat units)
         1        Fe     tau(   1) = (   0.0000000   0.0000000   0.0000000  )

     number of k points=     8  Methfessel-Paxton smearing, width (Ry)=  0.0200
                       cart. coord. in units 2pi/alat
        k(    1) = (   0.0000000   0.0000000   0.0000000), wk =   0.0156250
        k(    2) = (   0.2165064   0.2165064   0.0000000), wk =   0.1875000
        k(    3) = (  -0.4330127  -0.4330127   0.0000000), wk =   0.0937500
        k(    4) = (   0.4330127   0.2165064   0.2165064), wk =   0.3750000
        k(    5) = (   0.4330127   0.4330127   0.4330127), wk =   0.0312500
        k(    6) = (   0.0000000   0.0000000   0.4330127), wk =   0.0937500
        k(    7) = (  -0.8660254  -0.2165064  -0.2165064), wk =   0.1875000
        k(    8) = (  -0.8660254  -0.8660254  -0.8660254), wk =   0.0156250

     Dense  grid:     5775 G-vectors     FFT dimensions: (  25,  25,  25)

     Smooth grid:     1481 G-vectors     FFT dimensions: (  15,  15,  15)

     Estimated max dynamical RAM per process >      14.85 MB

     Estimated total dynamical RAM >      29.71 MB

     Check: negative core charge=   -0.000001
     Generating pointlists ...
     new r_m :   0.4125 (alat units)  1.8227 (a.u.) for type    1

     Initial potential from superposition of free atoms

     starting charge       7.9994, renormalised to       8.0000
     Starting wfcs are    6 randomized atomic wfcs +    2 random wfcs

     total cpu time spent up to now is        0.5 secs

     Self-consistent Calculation

     iteration #  1     ecut=    30.00 Ry     beta= 0.50
     Davidson diagonalization with overlap
     ethr =  1.00E-02,  avg # of iterations =  4.8

     total cpu time spent up to now is        0.5 secs

     total energy              =     -55.68011342 Ry
     estimated scf accuracy    <       0.29567014 Ry

     total magnetization       =     2.77 Bohr mag/cell
     absolute magnetization    =     2.77 Bohr mag/cell

     iteration #  2     ecut=    30.00 Ry     beta= 0.50
     Davidson diagonalization with overlap
     ethr =  3.70E-03,  avg # of iterations =  1.8

     total cpu time spent up to now is        0.6 secs

     total energy              =     -55.75932334 Ry
     estimated scf accuracy    <       0.02252883 Ry

     total magnetization       =     2.79 Bohr mag/cell
     absolute magnetization    =     2.79 Bohr mag/cell

     iteration #  3     ecut=    30.00 Ry     beta= 0.50
     Davidson diagonalization with overlap
     ethr =  2.82E-04,  avg # of iterations =  2.1

     total cpu time spent up to now is        0.6 secs

     total energy              =     -55.77301944 Ry
     estimated scf accuracy    <       0.00559439 Ry

     total magnetization       =     2.73 Bohr mag/cell
     absolute magnetization    =     2.73 Bohr mag/cell

     iteration #  4     ecut=    30.00 Ry     beta= 0.50
     Davidson diagonalization with overlap
     ethr =  6.99E-05,  avg # of iterations =  2.4

     total cpu time spent up to now is        0.7 secs

     total energy              =     -55.77921896 Ry
     estimated scf accuracy    <       0.00729277 Ry

     total magnetization       =     2.10 Bohr mag/cell
     absolute magnetization    =     2.20 Bohr mag/cell

     iteration #  5     ecut=    30.00 Ry     beta= 0.50
     Davidson diagonalization with overlap
     ethr =  6.99E-05,  avg # of iterations =  1.0

     total cpu time spent up to now is        0.7 secs

     total energy              =     -55.78126139 Ry
     estimated scf accuracy    <       0.00728524 Ry

     total magnetization       =     2.16 Bohr mag/cell
     absolute magnetization    =     2.25 Bohr mag/cell

     iteration #  6     ecut=    30.00 Ry     beta= 0.50
     Davidson diagonalization with overlap
     ethr =  6.99E-05,  avg # of iterations =  1.9

     total cpu time spent up to now is        0.8 secs

     total energy              =     -55.78669701 Ry
     estimated scf accuracy    <       0.00789058 Ry

     total magnetization       =     2.08 Bohr mag/cell
     absolute magnetization    =     2.17 Bohr mag/cell

     iteration #  7     ecut=    30.00 Ry     beta= 0.50
     Davidson diagonalization with overlap
     ethr =  6.99E-05,  avg # of iterations =  1.3

     total cpu time spent up to now is        0.8 secs

     total energy              =     -55.78833117 Ry
     estimated scf accuracy    <       0.00306952 Ry

     total magnetization       =     1.96 Bohr mag/cell
     absolute magnetization    =     2.01 Bohr mag/cell

     iteration #  8     ecut=    30.00 Ry     beta= 0.50
     Davidson diagonalization with overlap
     ethr =  3.84E-05,  avg # of iterations =  1.6
     Minimization algorithm failed to find Fermi energy: reverting to bisection
     Possible cause: smearing is larger than the electronic band-gap.

     total cpu time spent up to now is        0.9 secs

     total energy              =     -55.78769929 Ry
     estimated scf accuracy    <       0.00016695 Ry

     total magnetization       =     1.79 Bohr mag/cell
     absolute magnetization    =     1.84 Bohr mag/cell

     iteration #  9     ecut=    30.00 Ry     beta= 0.50
     Davidson diagonalization with overlap
     ethr =  2.09E-06,  avg # of iterations =  4.6

     total cpu time spent up to now is        1.0 secs

     total energy              =     -55.78953977 Ry
     estimated scf accuracy    <       0.00044267 Ry

     total magnetization       =     2.00 Bohr mag/cell
     absolute magnetization    =     2.05 Bohr mag/cell

     iteration # 10     ecut=    30.00 Ry     beta= 0.50
     Davidson diagonalization with overlap
     ethr =  2.09E-06,  avg # of iterations =  1.0
     Minimization algorithm failed to find Fermi energy: reverting to bisection
     Possible cause: smearing is larger than the electronic band-gap.

     total cpu time spent up to now is        1.0 secs

     total energy              =     -55.78965436 Ry
     estimated scf accuracy    <       0.00041566 Ry

     total magnetization       =     2.00 Bohr mag/cell
     absolute magnetization    =     2.05 Bohr mag/cell

     iteration # 11     ecut=    30.00 Ry     beta= 0.50
     Davidson diagonalization with overlap
     ethr =  2.09E-06,  avg # of iterations =  1.5
     Minimization algorithm failed to find Fermi energy: reverting to bisection
     Possible cause: smearing is larger than the electronic band-gap.

     total cpu time spent up to now is        1.1 secs

     total energy              =     -55.79025763 Ry
     estimated scf accuracy    <       0.00005767 Ry

     total magnetization       =     1.87 Bohr mag/cell
     absolute magnetization    =     1.93 Bohr mag/cell

     iteration # 12     ecut=    30.00 Ry     beta= 0.50
     Davidson diagonalization with overlap
     ethr =  7.21E-07,  avg # of iterations =  1.0
     Minimization algorithm failed to find Fermi energy: reverting to bisection
     Possible cause: smearing is larger than the electronic band-gap.

     total cpu time spent up to now is        1.1 secs

     total energy              =     -55.79027107 Ry
     estimated scf accuracy    <       0.00007436 Ry

     total magnetization       =     1.88 Bohr mag/cell
     absolute magnetization    =     1.94 Bohr mag/cell

     iteration # 13     ecut=    30.00 Ry     beta= 0.50
     Davidson diagonalization with overlap
     ethr =  7.21E-07,  avg # of iterations =  1.4
     Minimization algorithm failed to find Fermi energy: reverting to bisection
     Possible cause: smearing is larger than the electronic band-gap.

     total cpu time spent up to now is        1.2 secs

     total energy              =     -55.79025943 Ry
     estimated scf accuracy    <       0.00001354 Ry

     total magnetization       =     1.85 Bohr mag/cell
     absolute magnetization    =     1.91 Bohr mag/cell

     iteration # 14     ecut=    30.00 Ry     beta= 0.50
     Davidson diagonalization with overlap
     ethr =  1.69E-07,  avg # of iterations =  1.1
     Minimization algorithm failed to find Fermi energy: reverting to bisection
     Possible cause: smearing is larger than the electronic band-gap.

     total cpu time spent up to now is        1.2 secs

     total energy              =     -55.79029232 Ry
     estimated scf accuracy    <       0.00002924 Ry

     total magnetization       =     1.87 Bohr mag/cell
     absolute magnetization    =     1.93 Bohr mag/cell

     iteration # 15     ecut=    30.00 Ry     beta= 0.50
     Davidson diagonalization with overlap
     ethr =  1.69E-07,  avg # of iterations =  1.4
     Minimization algorithm failed to find Fermi energy: reverting to bisection
     Possible cause: smearing is larger than the electronic band-gap.

     total cpu time spent up to now is        1.3 secs

     total energy              =     -55.79029930 Ry
     estimated scf accuracy    <       0.00001717 Ry

     total magnetization       =     1.86 Bohr mag/cell
     absolute magnetization    =     1.92 Bohr mag/cell

     iteration # 16     ecut=    30.00 Ry     beta= 0.50
     Davidson diagonalization with overlap
     ethr =  1.69E-07,  avg # of iterations =  1.3
     Minimization algorithm failed to find Fermi energy: reverting to bisection
     Possible cause: smearing is larger than the electronic band-gap.

     total cpu time spent up to now is        1.3 secs

     total energy              =     -55.79033034 Ry
     estimated scf accuracy    <       0.00000894 Ry

     total magnetization       =     1.82 Bohr mag/cell
     absolute magnetization    =     1.88 Bohr mag/cell

     iteration # 17     ecut=    30.00 Ry     beta= 0.50
     Davidson diagonalization with overlap
     ethr =  1.12E-07,  avg # of iterations =  1.7

     total cpu time spent up to now is        1.4 secs

     total energy              =     -55.79033268 Ry
     estimated scf accuracy    <       0.00001231 Ry

     total magnetization       =     1.81 Bohr mag/cell
     absolute magnetization    =     1.87 Bohr mag/cell

     iteration # 18     ecut=    30.00 Ry     beta= 0.50
     Davidson diagonalization with overlap
     ethr =  1.12E-07,  avg # of iterations =  1.4
     Minimization algorithm failed to find Fermi energy: reverting to bisection
     Possible cause: smearing is larger than the electronic band-gap.

     total cpu time spent up to now is        1.4 secs

     total energy              =     -55.79033566 Ry
     estimated scf accuracy    <       0.00000078 Ry

     total magnetization       =     1.82 Bohr mag/cell
     absolute magnetization    =     1.88 Bohr mag/cell

     iteration # 19     ecut=    30.00 Ry     beta= 0.50
     Davidson diagonalization with overlap
     ethr =  9.79E-09,  avg # of iterations =  1.9

     Magnetic moment per site  (integrated on atomic sphere of radius R)
     atom   1 (R=0.413)  charge=  6.3773  magn=  1.8283

     total cpu time spent up to now is        1.5 secs

     End of self-consistent calculation

 ------ SPIN UP ------------


          k = 0.0000 0.0000 0.0000 (   177 PWs)   bands (ev):

     7.0685  13.9014  13.9014  13.9014  15.3275  15.3275  42.3458  42.3459

          k = 0.2165 0.2165 0.0000 (   190 PWs)   bands (ev):

     9.5547  13.1813  13.6785  15.1570  15.4209  15.4321  33.8770  38.8898

          k =-0.4330-0.4330 0.0000 (   186 PWs)   bands (ev):

    10.6453  12.5233  15.4642  15.5899  16.9607  17.2867  25.2421  35.7508

          k = 0.4330 0.2165 0.2165 (   179 PWs)   bands (ev):

    11.7777  12.5390  13.3961  15.3238  15.8795  19.4177  28.8179  30.0298

          k = 0.4330 0.4330 0.4330 (   180 PWs)   bands (ev):

    12.7332  12.7332  12.7332  15.6373  15.6373  26.2160  26.2160  26.2160

          k = 0.0000 0.0000 0.4330 (   184 PWs)   bands (ev):

    11.1524  12.8706  14.4368  14.4368  15.3716  16.9669  35.2616  35.5769

          k =-0.8660-0.2165-0.2165 (   194 PWs)   bands (ev):

    11.3902  12.0475  14.3581  15.1164  17.1123  22.3628  25.6541  31.9566

          k =-0.8660-0.8660-0.8660 (   188 PWs)   bands (ev):

    10.5799  10.5799  16.9409  16.9409  16.9409  27.4948  27.4948  27.4948

 ------ SPIN DOWN ----------


          k = 0.0000 0.0000 0.0000 (   177 PWs)   bands (ev):

     7.2336  15.4768  15.4768  15.4768  18.0400  18.0400  42.2193  42.2193

          k = 0.2165 0.2165 0.0000 (   190 PWs)   bands (ev):

     9.8266  14.6586  15.1570  17.1117  17.5996  18.1487  34.5070  39.0724

          k =-0.4330-0.4330 0.0000 (   186 PWs)   bands (ev):

    11.7876  13.9219  17.0942  17.8569  18.3723  19.1359  26.4557  35.8731

          k = 0.4330 0.2165 0.2165 (   179 PWs)   bands (ev):

    12.7502  14.0109  14.5912  17.6373  18.3593  20.8474  29.6740  30.6561

          k = 0.4330 0.4330 0.4330 (   180 PWs)   bands (ev):

    13.8728  13.8728  13.8728  18.4330  18.4330  27.0193  27.0193  27.0193

          k = 0.0000 0.0000 0.4330 (   184 PWs)   bands (ev):

    11.7827  15.0166  15.9520  15.9520  17.0578  19.2491  36.0630  36.1000

          k =-0.8660-0.2165-0.2165 (   194 PWs)   bands (ev):

    13.0213  13.7267  15.8699  16.8372  18.9469  23.3880  26.6215  32.3967

          k =-0.8660-0.8660-0.8660 (   188 PWs)   bands (ev):

    12.3386  12.3386  18.7615  18.7615  18.7615  27.7029  27.7029  27.7029

     the Fermi energy is    16.8420 ev

!    total energy              =     -55.79033612 Ry
     estimated scf accuracy    <       0.00000008 Ry
     smearing contrib. (-TS)   =      -0.00028699 Ry
     internal energy E=F+TS    =     -55.79004912 Ry

     The total energy is F=E-TS. E is the sum of the following terms:
     one-electron contribution =      10.60427493 Ry
     hartree contribution      =       5.79245088 Ry
     xc contribution           =     -26.53819641 Ry
     ewald contribution        =     -45.64857853 Ry

     total magnetization       =     1.82 Bohr mag/cell
     absolute magnetization    =     1.88 Bohr mag/cell

     convergence has been achieved in  19 iterations

     Forces acting on atoms (cartesian axes, Ry/au):

     atom    1 type  1   force =     0.00000000    0.00000000    0.00000000

     Total force =     0.000000     Total SCF correction =     0.000000


     Computing stress (Cartesian axis) and pressure

          total   stress  (Ry/bohr**3)                   (kbar)     P=      330.43
   0.00224618   0.00000000   0.00000000          330.43        0.00        0.00
   0.00000000   0.00224618   0.00000000            0.00      330.43        0.00
   0.00000000   0.00000000   0.00224618            0.00        0.00      330.43


     BFGS Geometry Optimization
     Energy error            =      2.3E-02 Ry
     Gradient error          =      0.0E+00 Ry/Bohr
     Cell gradient error     =      3.3E+02 kbar

     number of scf cycles    =   1
     number of bfgs steps    =   0

     enthalpy           new  =     -55.7903361163 Ry

     new trust radius        =       0.0915259463 bohr
     new conv_thr            =       0.0000001000 Ry

     new unit-cell volume =     78.24208 a.u.^3 (    11.59428 Ang^3 )
     density =      7.99815 g/cm^3

CELL_PARAMETERS (angstrom)
  -1.425808700   1.425808700   1.425808700
   1.425808700  -1.425808700   1.425808700
   1.425808700   1.425808700  -1.425808700

ATOMIC_POSITIONS (angstrom)
Fe               0.0000000000        0.0000000000        0.0000000000


     Message from routine punch:
     Nothing written, as per user request (disk_io='none')
     NEW-OLD atomic charge density approx. for the potential
     New effective cutoffs (rho, wfc):  266.46   26.68

     Check: negative core charge=   -0.000003
     Generating pointlists ...

     total cpu time spent up to now is        1.6 secs

     Self-consistent Calculation

     iteration #  1     ecut=    30.00 Ry     beta= 0.50
     Davidson diagonalization with overlap
     ethr =  1.00E-06,  avg # of iterations =  6.4

     total cpu time spent up to now is        1.7 secs

     total energy              =     -55.79849799 Ry
     estimated scf accuracy    <       0.00193792 Ry

     total magnetization       =     2.01 Bohr mag/cell
     absolute magnetization    =     2.07 Bohr mag/cell

     iteration #  2     ecut=    30.00 Ry     beta= 0.50
     Davidson diagonalization with overlap
     ethr =  2.42E-05,  avg # of iterations =  1.1

     total cpu time spent up to now is        1.7 secs

     total energy              =     -55.79888318 Ry
     estimated scf accuracy    <       0.00088835 Ry

     total magnetization       =     2.01 Bohr mag/cell
     absolute magnetization    =     2.09 Bohr mag/cell

     iteration #  3     ecut=    30.00 Ry     beta= 0.50
     Davidson diagonalization with overlap
     ethr =  1.11E-05,  avg # of iterations =  1.2

     total cpu time spent up to now is        1.8 secs

     total energy              =     -55.79908742 Ry
     estimated scf accuracy    <       0.00020386 Ry

     total magnetization       =     2.00 Bohr mag/cell
     absolute magnetization    =     2.08 Bohr mag/cell

     iteration #  4     ecut=    30.00 Ry     beta= 0.50
     Davidson diagonalization with overlap
     ethr =  2.55E-06,  avg # of iterations =  1.5

     total cpu time spent up to now is        1.8 secs

     total energy              =     -55.79913197 Ry
     estimated scf accuracy    <       0.00000524 Ry

     total magnetization       =     1.99 Bohr mag/cell
     absolute magnetization    =     2.09 Bohr mag/cell

     iteration #  5     ecut=    30.00 Ry     beta= 0.50
     Davidson diagonalization with overlap
     ethr =  6.56E-08,  avg # of iterations =  3.3

     total cpu time spent up to now is        1.9 secs

     total energy              =     -55.79913987 Ry
     estimated scf accuracy    <       0.00000204 Ry

     total magnetization       =     1.99 Bohr mag/cell
     absolute magnetization    =     2.10 Bohr mag/cell

     iteration #  6     ecut=    30.00 Ry     beta= 0.50
     Davidson diagonalization with overlap
     ethr =  2.55E-08,  avg # of iterations =  1.9

     Magnetic moment per site  (integrated on atomic sphere of radius R)
     atom   1 (R=0.413)  charge=  6.2018  magn=  2.0230

     total cpu time spent up to now is        1.9 secs

     End of self-consistent calculation

 ------ SPIN UP ------------


          k = 0.0000 0.0000 0.0000 (   177 PWs)   bands (ev):

     4.9327  11.1523  11.1523  11.1523  12.1827  12.1827  37.7295  37.7295

          k = 0.2050 0.2050 0.0000 (   190 PWs)   bands (ev):

     7.1859  10.5976  10.9584  12.0757  12.2509  12.3566  28.8860  34.1385

          k =-0.4100-0.4100 0.0000 (   186 PWs)   bands (ev):

     8.4885  10.0823  12.3030  12.3694  13.8015  13.8475  20.5290  31.3089

          k = 0.4100 0.2050 0.2050 (   179 PWs)   bands (ev):

     9.3802  10.0634  10.7311  12.2153  12.6227  15.6482  24.2166  25.0650

          k = 0.4100 0.4100 0.4100 (   180 PWs)   bands (ev):

    10.2196  10.2196  10.2196  12.4041  12.4041  21.8677  21.8677  21.8677

          k = 0.0000 0.0000 0.4100 (   184 PWs)   bands (ev):

     8.6994  10.3220  11.5846  11.5846  12.3155  13.4672  30.2106  30.5266

          k =-0.8200-0.2050-0.2050 (   194 PWs)   bands (ev):

     9.1348   9.6438  11.5269  12.0978  13.6670  18.3920  21.0544  26.9815

          k =-0.8200-0.8200-0.8200 (   188 PWs)   bands (ev):

     8.5107   8.5107  13.5346  13.5346  13.5346  23.1365  23.1365  23.1365

 ------ SPIN DOWN ----------


          k = 0.0000 0.0000 0.0000 (   177 PWs)   bands (ev):

     5.0308  12.9049  12.9049  12.9049  15.1176  15.1176  37.4834  37.4834

          k = 0.2050 0.2050 0.0000 (   190 PWs)   bands (ev):

     7.3745  12.2474  12.6210  14.2220  14.7413  15.2027  29.4717  34.2374

          k =-0.4100-0.4100 0.0000 (   186 PWs)   bands (ev):

     9.7117  11.6471  13.8866  14.9145  15.3730  15.8468  21.8072  31.3482

          k = 0.4100 0.2050 0.2050 (   179 PWs)   bands (ev):

    10.3478  11.6832  12.0759  14.7487  15.3214  17.2109  25.0362  25.6818

          k = 0.4100 0.4100 0.4100 (   180 PWs)   bands (ev):

    11.4786  11.4786  11.4786  15.4202  15.4202  22.6601  22.6601  22.6601

          k = 0.0000 0.0000 0.4100 (   184 PWs)   bands (ev):

     9.2502  12.6898  13.2751  13.2751  14.1895  15.9754  30.7120  30.7120

          k =-0.8200-0.2050-0.2050 (   194 PWs)   bands (ev):

    10.9057  11.4599  13.2138  14.0171  15.6971  19.4139  22.0413  27.3899

          k =-0.8200-0.8200-0.8200 (   188 PWs)   bands (ev):

    10.4526  10.4526  15.5501  15.5501  15.5501  23.2920  23.2920  23.2920

     the Fermi energy is    13.5472 ev

!    total energy              =     -55.79914102 Ry
     estimated scf accuracy    <       0.00000004 Ry
     smearing contrib. (-TS)   =       0.00030634 Ry
     internal energy E=F+TS    =     -55.79944736 Ry

     The total energy is F=E-TS. E is the sum of the following terms:
     one-electron contribution =       7.19755127 Ry
     hartree contribution      =       6.65196435 Ry
     xc contribution           =     -26.42746980 Ry
     ewald contribution        =     -43.22149317 Ry

     total magnetization       =     1.99 Bohr mag/cell
     absolute magnetization    =     2.10 Bohr mag/cell

     convergence has been achieved in   6 iterations

     Forces acting on atoms (cartesian axes, Ry/au):

     atom    1 type  1   force =     0.00000000    0.00000000    0.00000000

     Total force =     0.000000     Total SCF correction =     0.000000


     Computing stress (Cartesian axis) and pressure

          total   stress  (Ry/bohr**3)                   (kbar)     P=      -76.53
  -0.00052021   0.00000000  -0.00000000          -76.53        0.00       -0.00
   0.00000000  -0.00052021  -0.00000000            0.00      -76.53       -0.00
  -0.00000000  -0.00000000  -0.00052021           -0.00       -0.00      -76.53

     Energy error            =      8.8E-03 Ry
     Gradient error          =      0.0E+00 Ry/Bohr
     Cell gradient error     =      7.7E+01 kbar

     number of scf cycles    =   2
     number of bfgs steps    =   1

     enthalpy           old  =     -55.7903361163 Ry
     enthalpy           new  =     -55.7991410177 Ry

     CASE: enthalpy          _new < enthalpy          _old

     new trust radius        =       0.0193108811 bohr
     new conv_thr            =       0.0000000010 Ry

     new unit-cell volume =     75.70774 a.u.^3 (    11.21873 Ang^3 )
     density =      8.26589 g/cm^3

CELL_PARAMETERS (angstrom)
  -1.410244989   1.410244989   1.410244989
   1.410244989  -1.410244989   1.410244989
   1.410244989   1.410244989  -1.410244989

ATOMIC_POSITIONS (angstrom)
Fe               0.0000000000        0.0000000000        0.0000000000


     Message from routine punch:
     Nothing written, as per user request (disk_io='none')
     NEW-OLD atomic charge density approx. for the potential
     New effective cutoffs (rho, wfc):  272.38   27.27

     Check: negative core charge=   -0.000003
     Generating pointlists ...

     total cpu time spent up to now is        2.1 secs

     Self-consistent Calculation

     iteration #  1     ecut=    30.00 Ry     beta= 0.50
     Davidson diagonalization with overlap
     ethr =  1.00E-06,  avg # of iterations =  4.4

     total cpu time spent up to now is        2.2 secs

     total energy              =     -55.79992162 Ry
     estimated scf accuracy    <       0.00001514 Ry

     total magnetization       =     2.00 Bohr mag/cell
     absolute magnetization    =     2.10 Bohr mag/cell

     iteration #  2     ecut=    30.00 Ry     beta= 0.50
     Davidson diagonalization with overlap
     ethr =  1.89E-07,  avg # of iterations =  1.4

     total cpu time spent up to now is        2.2 secs

     total energy              =     -55.79992621 Ry
     estimated scf accuracy    <       0.00000640 Ry

     total magnetization       =     2.00 Bohr mag/cell
     absolute magnetization    =     2.10 Bohr mag/cell

     iteration #  3     ecut=    30.00 Ry     beta= 0.50
     Davidson diagonalization with overlap
     ethr =  8.00E-08,  avg # of iterations =  1.2

     total cpu time spent up to now is        2.3 secs

     total energy              =     -55.79992864 Ry
     estimated scf accuracy    <       0.00000180 Ry

     total magnetization       =     2.00 Bohr mag/cell
     absolute magnetization    =     2.10 Bohr mag/cell

     iteration #  4     ecut=    30.00 Ry     beta= 0.50
     Davidson diagonalization with overlap
     ethr =  2.25E-08,  avg # of iterations =  1.7

     total cpu time spent up to now is        2.3 secs

     total energy              =     -55.79992940 Ry
     estimated scf accuracy    <       0.00000004 Ry

     total magnetization       =     2.00 Bohr mag/cell
     absolute magnetization    =     2.10 Bohr mag/cell

     iteration #  5     ecut=    30.00 Ry     beta= 0.50
     Davidson diagonalization with overlap
     ethr =  4.67E-10,  avg # of iterations =  4.6

     total cpu time spent up to now is        2.4 secs

     total energy              =     -55.79992951 Ry
     estimated scf accuracy    <          3.9E-09 Ry

     total magnetization       =     2.00 Bohr mag/cell
     absolute magnetization    =     2.10 Bohr mag/cell

     iteration #  6     ecut=    30.00 Ry     beta= 0.50
     Davidson diagonalization with overlap
     ethr =  4.91E-11,  avg # of iterations =  3.1

     Magnetic moment per site  (integrated on atomic sphere of radius R)
     atom   1 (R=0.413)  charge=  6.2336  magn=  2.0254

     total cpu time spent up to now is        2.4 secs

     End of self-consistent calculation

 ------ SPIN UP ------------


          k = 0.0000 0.0000 0.0000 (   177 PWs)   bands (ev):

     5.3229  11.6599  11.6599  11.6599  12.7696  12.7696  38.6158  38.6158

          k = 0.2073 0.2073 0.0000 (   190 PWs)   bands (ev):

     7.6217  11.0756  11.4631  12.6485  12.8423  12.9235  29.8304  35.0510

          k =-0.4145-0.4145 0.0000 (   186 PWs)   bands (ev):

     8.8903  10.5345  12.8899  12.9695  14.4242  14.4425  21.4065  32.1616

          k = 0.4145 0.2073 0.2073 (   179 PWs)   bands (ev):

     9.8249  10.5247  11.2239  12.7922  13.2271  16.3456  25.0781  25.9989

          k = 0.4145 0.4145 0.4145 (   180 PWs)   bands (ev):

    10.6839  10.6839  10.6839  13.0064  13.0064  22.6794  22.6794  22.6794

          k = 0.0000 0.0000 0.4145 (   184 PWs)   bands (ev):

     9.1536  10.8020  12.1113  12.1113  12.8791  14.1171  31.2197  31.4220

          k =-0.8290-0.2073-0.2073 (   194 PWs)   bands (ev):

     9.5588  10.0949  12.0499  12.6561  14.3008  19.1298  21.9122  27.9137

          k =-0.8290-0.8290-0.8290 (   188 PWs)   bands (ev):

     8.9023   8.9023  14.1614  14.1614  14.1614  23.9522  23.9522  23.9522

 ------ SPIN DOWN ----------


          k = 0.0000 0.0000 0.0000 (   177 PWs)   bands (ev):

     5.4386  13.4263  13.4263  13.4263  15.7002  15.7002  38.3936  38.3936

          k = 0.2073 0.2073 0.0000 (   190 PWs)   bands (ev):

     7.8327  12.7371  13.1282  14.8038  15.3122  15.7901  30.4401  35.1663

          k =-0.4145-0.4145 0.0000 (   186 PWs)   bands (ev):

    10.1234  12.1099  14.4852  15.5022  15.9709  16.5055  22.7040  32.2155

          k = 0.4145 0.2073 0.2073 (   179 PWs)   bands (ev):

    10.8171  12.1477  12.5726  15.3264  15.9275  17.9216  25.9263  26.6356

          k = 0.4145 0.4145 0.4145 (   180 PWs)   bands (ev):

    11.9532  11.9532  11.9532  16.0207  16.0207  23.4983  23.4983  23.4983

          k = 0.0000 0.0000 0.4145 (   184 PWs)   bands (ev):

     9.7285  13.1559  13.8138  13.8138  14.7680  16.6175  31.7444  31.7444

          k =-0.8290-0.2073-0.2073 (   194 PWs)   bands (ev):

    11.3268  11.9053  13.7487  14.5807  16.3484  20.1730  22.9209  28.3452

          k =-0.8290-0.8290-0.8290 (   188 PWs)   bands (ev):

    10.8313  10.8313  16.1941  16.1941  16.1941  24.1279  24.1279  24.1279

     the Fermi energy is    14.1864 ev

!    total energy              =     -55.79992952 Ry
     estimated scf accuracy    <          2.7E-10 Ry
     smearing contrib. (-TS)   =       0.00027807 Ry
     internal energy E=F+TS    =     -55.80020759 Ry

     The total energy is F=E-TS. E is the sum of the following terms:
     one-electron contribution =       7.87282146 Ry
     hartree contribution      =       6.47711803 Ry
     xc contribution           =     -26.45165392 Ry
     ewald contribution        =     -43.69849316 Ry

     total magnetization       =     2.00 Bohr mag/cell
     absolute magnetization    =     2.10 Bohr mag/cell

     convergence has been achieved in   6 iterations

     Forces acting on atoms (cartesian axes, Ry/au):

     atom    1 type  1   force =     0.00000000    0.00000000    0.00000000

     Total force =     0.000000     Total SCF correction =     0.000000


     Computing stress (Cartesian axis) and pressure

          total   stress  (Ry/bohr**3)                   (kbar)     P=      -10.89
  -0.00007406   0.00000000   0.00000000          -10.89        0.00        0.00
   0.00000000  -0.00007406   0.00000000            0.00      -10.89        0.00
   0.00000000   0.00000000  -0.00007406            0.00        0.00      -10.89

     Energy error            =      7.9E-04 Ry
     Gradient error          =      0.0E+00 Ry/Bohr
     Cell gradient error     =      1.1E+01 kbar

     number of scf cycles    =   3
     number of bfgs steps    =   2

     enthalpy           old  =     -55.7991410177 Ry
     enthalpy           new  =     -55.7999295240 Ry

     CASE: enthalpy          _new < enthalpy          _old

     new trust radius        =       0.0031074632 bohr
     new conv_thr            =       0.0000000010 Ry

     new unit-cell volume =     75.30289 a.u.^3 (    11.15874 Ang^3 )
     density =      8.31033 g/cm^3

CELL_PARAMETERS (angstrom)
  -1.407726730   1.407726730   1.407726730
   1.407726730  -1.407726730   1.407726730
   1.407726730   1.407726730  -1.407726730

ATOMIC_POSITIONS (angstrom)
Fe               0.0000000000        0.0000000000        0.0000000000


     Message from routine punch:
     Nothing written, as per user request (disk_io='none')
     NEW-OLD atomic charge density approx. for the potential
     New effective cutoffs (rho, wfc):  273.35   27.37

     Check: negative core charge=   -0.000003
     Generating pointlists ...

     total cpu time spent up to now is        2.6 secs

     Self-consistent Calculation

     iteration #  1     ecut=    30.00 Ry     beta= 0.50
     Davidson diagonalization with overlap
     ethr =  1.00E-06,  avg # of iterations =  3.1

     Threshold (ethr) on eigenvalues was too large:
     Diagonalizing with lowered threshold

     Davidson diagonalization with overlap
     ethr =  6.18E-09,  avg # of iterations =  2.4

     total cpu time spent up to now is        2.7 secs

     total energy              =     -55.79994297 Ry
     estimated scf accuracy    <       0.00000037 Ry

     total magnetization       =     2.00 Bohr mag/cell
     absolute magnetization    =     2.10 Bohr mag/cell

     iteration #  2     ecut=    30.00 Ry     beta= 0.50
     Davidson diagonalization with overlap
     ethr =  4.67E-09,  avg # of iterations =  1.2

     total cpu time spent up to now is        2.7 secs

     total energy              =     -55.79994310 Ry
     estimated scf accuracy    <       0.00000015 Ry

     total magnetization       =     2.00 Bohr mag/cell
     absolute magnetization    =     2.10 Bohr mag/cell

     iteration #  3     ecut=    30.00 Ry     beta= 0.50
     Davidson diagonalization with overlap
     ethr =  1.83E-09,  avg # of iterations =  1.3

     total cpu time spent up to now is        2.8 secs

     total energy              =     -55.79994317 Ry
     estimated scf accuracy    <       0.00000005 Ry

     total magnetization       =     2.00 Bohr mag/cell
     absolute magnetization    =     2.10 Bohr mag/cell

     iteration #  4     ecut=    30.00 Ry     beta= 0.50
     Davidson diagonalization with overlap
     ethr =  5.87E-10,  avg # of iterations =  1.7

     total cpu time spent up to now is        2.8 secs

     total energy              =     -55.79994319 Ry
     estimated scf accuracy    <          2.5E-09 Ry

     total magnetization       =     2.00 Bohr mag/cell
     absolute magnetization    =     2.10 Bohr mag/cell

     iteration #  5     ecut=    30.00 Ry     beta= 0.50
     Davidson diagonalization with overlap
     ethr =  3.14E-11,  avg # of iterations =  3.5

     Magnetic moment per site  (integrated on atomic sphere of radius R)
     atom   1 (R=0.413)  charge=  6.2391  magn=  2.0269

     total cpu time spent up to now is        2.9 secs

     End of self-consistent calculation

 ------ SPIN UP ------------


          k = 0.0000 0.0000 0.0000 (   177 PWs)   bands (ev):

     5.3875  11.7429  11.7429  11.7429  12.8661  12.8661  38.7613  38.7613

          k = 0.2076 0.2076 0.0000 (   190 PWs)   bands (ev):

     7.6937  11.1536  11.5458  12.7426  12.9395  13.0163  29.9860  35.2010

          k =-0.4153-0.4153 0.0000 (   186 PWs)   bands (ev):

     8.9560  10.6082  12.9863  13.0682  14.5196  14.5476  21.5514  32.3017

          k = 0.4153 0.2076 0.2076 (   179 PWs)   bands (ev):

     9.8978  10.6002  11.3046  12.8869  13.3265  16.4605  25.2203  26.1529

          k = 0.4153 0.4153 0.4153 (   180 PWs)   bands (ev):

    10.7599  10.7599  10.7599  13.1055  13.1055  22.8133  22.8133  22.8133

          k = 0.0000 0.0000 0.4153 (   184 PWs)   bands (ev):

     9.2285  10.8806  12.1975  12.1975  12.9714  14.2243  31.3862  31.5694

          k =-0.8305-0.2076-0.2076 (   194 PWs)   bands (ev):

     9.6282  10.1688  12.1355  12.7475  14.4048  19.2518  22.0539  28.0676

          k =-0.8305-0.8305-0.8305 (   188 PWs)   bands (ev):

     8.9662   8.9662  14.2642  14.2642  14.2642  24.0869  24.0869  24.0869

 ------ SPIN DOWN ----------


          k = 0.0000 0.0000 0.0000 (   177 PWs)   bands (ev):

     5.5072  13.5127  13.5127  13.5127  15.7965  15.7965  38.5443  38.5443

          k = 0.2076 0.2076 0.0000 (   190 PWs)   bands (ev):

     7.9096  12.8183  13.2124  14.9003  15.4066  15.8872  30.6007  35.3201

          k =-0.4153-0.4153 0.0000 (   186 PWs)   bands (ev):

    10.1918  12.1866  14.5854  15.5995  16.0698  16.6149  22.8530  32.3591

          k = 0.4153 0.2076 0.2076 (   179 PWs)   bands (ev):

    10.8952  12.2249  12.6553  15.4221  16.0279  18.0397  26.0742  26.7940

          k = 0.4153 0.4153 0.4153 (   180 PWs)   bands (ev):

    12.0321  12.0321  12.0321  16.1200  16.1200  23.6377  23.6377  23.6377

          k = 0.0000 0.0000 0.4153 (   184 PWs)   bands (ev):

     9.8085  13.2330  13.9032  13.9032  14.8639  16.7240  31.9159  31.9159

          k =-0.8305-0.2076-0.2076 (   194 PWs)   bands (ev):

    11.3966  11.9792  13.8374  14.6742  16.4565  20.2993  23.0672  28.5040

          k =-0.8305-0.8305-0.8305 (   188 PWs)   bands (ev):

    10.8939  10.8939  16.3009  16.3009  16.3009  24.2671  24.2671  24.2671

     the Fermi energy is    14.2918 ev

!    total energy              =     -55.79994319 Ry
     estimated scf accuracy    <          1.9E-10 Ry
     smearing contrib. (-TS)   =       0.00024325 Ry
     internal energy E=F+TS    =     -55.80018643 Ry

     The total energy is F=E-TS. E is the sum of the following terms:
     one-electron contribution =       7.98355980 Ry
     hartree contribution      =       6.44862432 Ry
     xc contribution           =     -26.45570588 Ry
     ewald contribution        =     -43.77666468 Ry

     total magnetization       =     2.00 Bohr mag/cell
     absolute magnetization    =     2.10 Bohr mag/cell

     convergence has been achieved in   5 iterations

     Forces acting on atoms (cartesian axes, Ry/au):

     atom    1 type  1   force =     0.00000000    0.00000000    0.00000000

     Total force =     0.000000     Total SCF correction =     0.000000


     Computing stress (Cartesian axis) and pressure

          total   stress  (Ry/bohr**3)                   (kbar)     P=        0.90
   0.00000612   0.00000000  -0.00000000            0.90        0.00       -0.00
   0.00000000   0.00000612   0.00000000            0.00        0.90        0.00
  -0.00000000   0.00000000   0.00000612           -0.00        0.00        0.90

     Energy error            =      1.4E-05 Ry
     Gradient error          =      0.0E+00 Ry/Bohr
     Cell gradient error     =      9.0E-01 kbar

     number of scf cycles    =   4
     number of bfgs steps    =   3

     enthalpy           old  =     -55.7999295240 Ry
     enthalpy           new  =     -55.7999431888 Ry

     CASE: enthalpy          _new < enthalpy          _old

     new trust radius        =       0.0002361112 bohr
     new conv_thr            =       0.0000000010 Ry

     new unit-cell volume =     75.33363 a.u.^3 (    11.16329 Ang^3 )
     density =      8.30694 g/cm^3

CELL_PARAMETERS (angstrom)
  -1.407918243   1.407918243   1.407918243
   1.407918243  -1.407918243   1.407918243
   1.407918243   1.407918243  -1.407918243

ATOMIC_POSITIONS (angstrom)
Fe               0.0000000000        0.0000000000        0.0000000000


     Message from routine punch:
     Nothing written, as per user request (disk_io='none')
     NEW-OLD atomic charge density approx. for the potential
     New effective cutoffs (rho, wfc):  273.28   27.36

     Check: negative core charge=   -0.000003
     Generating pointlists ...

     total cpu time spent up to now is        3.0 secs

     Self-consistent Calculation

     iteration #  1     ecut=    30.00 Ry     beta= 0.50
     Davidson diagonalization with overlap
     ethr =  1.00E-06,  avg # of iterations =  2.0

     Threshold (ethr) on eigenvalues was too large:
     Diagonalizing with lowered threshold

     Davidson diagonalization with overlap
     ethr =  2.75E-11,  avg # of iterations =  3.3

     total cpu time spent up to now is        3.1 secs

     total energy              =     -55.79994333 Ry
     estimated scf accuracy    <          1.9E-09 Ry

     total magnetization       =     2.00 Bohr mag/cell
     absolute magnetization    =     2.10 Bohr mag/cell

     iteration #  2     ecut=    30.00 Ry     beta= 0.50
     Davidson diagonalization with overlap
     ethr =  2.42E-11,  avg # of iterations =  1.0

     Magnetic moment per site  (integrated on atomic sphere of radius R)
     atom   1 (R=0.413)  charge=  6.2387  magn=  2.0267

     total cpu time spent up to now is        3.2 secs

     End of self-consistent calculation

 ------ SPIN UP ------------


          k = 0.0000 0.0000 0.0000 (   177 PWs)   bands (ev):

     5.3824  11.7365  11.7365  11.7365  12.8588  12.8588  38.7500  38.7500

          k = 0.2076 0.2076 0.0000 (   190 PWs)   bands (ev):

     7.6881  11.1476  11.5394  12.7354  12.9321  13.0092  29.9740  35.1894

          k =-0.4152-0.4152 0.0000 (   186 PWs)   bands (ev):

     8.9509  10.6025  12.9789  13.0607  14.5122  14.5396  21.5402  32.2908

          k = 0.4152 0.2076 0.2076 (   179 PWs)   bands (ev):

     9.8921  10.5944  11.2984  12.8796  13.3189  16.4517  25.2093  26.1411

          k = 0.4152 0.4152 0.4152 (   180 PWs)   bands (ev):

    10.7540  10.7540  10.7540  13.0980  13.0980  22.8029  22.8029  22.8029

          k = 0.0000 0.0000 0.4152 (   184 PWs)   bands (ev):

     9.2227  10.8746  12.1908  12.1908  12.9643  14.2161  31.3733  31.5578

          k =-0.8304-0.2076-0.2076 (   194 PWs)   bands (ev):

     9.6228  10.1632  12.1289  12.7405  14.3968  19.2424  22.0429  28.0557

          k =-0.8304-0.8304-0.8304 (   188 PWs)   bands (ev):

     8.9613   8.9613  14.2563  14.2563  14.2563  24.0765  24.0765  24.0765

 ------ SPIN DOWN ----------


          k = 0.0000 0.0000 0.0000 (   177 PWs)   bands (ev):

     5.5021  13.5061  13.5061  13.5061  15.7890  15.7890  38.5330  38.5330

          k = 0.2076 0.2076 0.0000 (   190 PWs)   bands (ev):

     7.9038  12.8121  13.2060  14.8930  15.3993  15.8796  30.5886  35.3086

          k =-0.4152-0.4152 0.0000 (   186 PWs)   bands (ev):

    10.1867  12.1807  14.5779  15.5920  16.0621  16.6065  22.8417  32.3483

          k = 0.4152 0.2076 0.2076 (   179 PWs)   bands (ev):

    10.8894  12.2190  12.6490  15.4147  16.0201  18.0307  26.0630  26.7820

          k = 0.4152 0.4152 0.4152 (   180 PWs)   bands (ev):

    12.0262  12.0262  12.0262  16.1122  16.1122  23.6272  23.6272  23.6272

          k = 0.0000 0.0000 0.4152 (   184 PWs)   bands (ev):

     9.8026  13.2270  13.8964  13.8964  14.8566  16.7158  31.9029  31.9029

          k =-0.8304-0.2076-0.2076 (   194 PWs)   bands (ev):

    11.3913  11.9736  13.8307  14.6670  16.4482  20.2897  23.0561  28.4920

          k =-0.8304-0.8304-0.8304 (   188 PWs)   bands (ev):

    10.8891  10.8891  16.2927  16.2927  16.2927  24.2567  24.2567  24.2567

     the Fermi energy is    14.2838 ev

!    total energy              =     -55.79994333 Ry
     estimated scf accuracy    <          5.9E-10 Ry
     smearing contrib. (-TS)   =       0.00024596 Ry
     internal energy E=F+TS    =     -55.80018929 Ry

     The total energy is F=E-TS. E is the sum of the following terms:
     one-electron contribution =       7.97511209 Ry
     hartree contribution      =       6.45080582 Ry
     xc contribution           =     -26.45539729 Ry
     ewald contribution        =     -43.77070992 Ry

     total magnetization       =     2.00 Bohr mag/cell
     absolute magnetization    =     2.10 Bohr mag/cell

     convergence has been achieved in   2 iterations

     Forces acting on atoms (cartesian axes, Ry/au):

     atom    1 type  1   force =     0.00000000    0.00000000    0.00000000

     Total force =     0.000000     Total SCF correction =     0.000000


     Computing stress (Cartesian axis) and pressure

          total   stress  (Ry/bohr**3)                   (kbar)     P=        0.08
   0.00000056  -0.00000000  -0.00000000            0.08       -0.00       -0.00
  -0.00000000   0.00000056  -0.00000000           -0.00        0.08       -0.00
  -0.00000000  -0.00000000   0.00000056           -0.00       -0.00        0.08

     Energy error            =      1.4E-07 Ry
     Gradient error          =      0.0E+00 Ry/Bohr
     Cell gradient error     =      8.2E-02 kbar

     bfgs converged in   5 scf cycles and   4 bfgs steps
     (criteria: energy <  1.0E-04 Ry, force <  1.0E-03 Ry/Bohr, cell <  5.0E-01 kbar)

     End of BFGS Geometry Optimization

     Final enthalpy           =     -55.7999433293 Ry

     File /home/bond/Work/Lab4/1A/Fe_bcc_nk_4_relax/pwscf.bfgs deleted, as requested
Begin final coordinates
     new unit-cell volume =     75.33363 a.u.^3 (    11.16329 Ang^3 )
     density =      8.30694 g/cm^3

CELL_PARAMETERS (angstrom)
  -1.407918243   1.407918243   1.407918243
   1.407918243  -1.407918243   1.407918243
   1.407918243   1.407918243  -1.407918243

ATOMIC_POSITIONS (angstrom)
Fe               0.0000000000        0.0000000000        0.0000000000
End final coordinates


     Message from routine punch:
     Nothing written, as per user request (disk_io='none')

     Final scf calculation at the relaxed structure.
     The G-vectors are recalculated for the final unit cell
     Results may differ from those at the preceding step.

     Parallelization info
     --------------------
     sticks:   dense  smooth     PW     G-vecs:    dense   smooth      PW
     Min         237      98     45                 3301      860     277
     Max         238      99     46                 3302      861     278
     Sum         475     197     91                 6603     1721     555

     Using Slab Decomposition



     bravais-lattice index     =            0
     lattice parameter (alat)  =       4.4187  a.u.
     unit-cell volume          =      75.3336 (a.u.)^3
     number of atoms/cell      =            1
     number of atomic types    =            1
     number of electrons       =         8.00
     number of Kohn-Sham states=            8
     kinetic-energy cutoff     =      30.0000  Ry
     charge density cutoff     =     300.0000  Ry
     scf convergence threshold =      1.0E-09
     mixing beta               =       0.5000
     number of iterations used =            8  plain     mixing
     press convergence thresh. =      5.0E-01
     Exchange-correlation=  SLA  PW   PBE  PBE
                           (   1   4   3   4   0   0   0)

     celldm(1)=   4.418687  celldm(2)=   0.000000  celldm(3)=   0.000000
     celldm(4)=   0.000000  celldm(5)=   0.000000  celldm(6)=   0.000000

     crystal axes: (cart. coord. in units of alat)
               a(1) = (  -0.602120   0.602120   0.602120 )  
               a(2) = (   0.602120  -0.602120   0.602120 )  
               a(3) = (   0.602120   0.602120  -0.602120 )  

     reciprocal axes: (cart. coord. in units 2 pi/alat)
               b(1) = (  0.000000  0.830399  0.830399 )  
               b(2) = (  0.830399  0.000000  0.830399 )  
               b(3) = (  0.830399  0.830399  0.000000 )  


     PseudoPot. # 1 for Fe read from file:
     /home/bond/Software/QE/qe-7.4.1/pseudo/Fe.pbe-nd-rrkjus.UPF
     MD5 check sum: 398036227a04b607635f6f5e8dfd8242
     Pseudo is Ultrasoft + core correction, Zval =  8.0
     Generated by new atomic code, or converted to UPF format
     Using radial grid of  957 points,  6 beta functions with: 
                l(1) =   0
                l(2) =   0
                l(3) =   1
                l(4) =   1
                l(5) =   2
                l(6) =   2
     Q(r) pseudized with 0 coefficients 


     atomic species   valence    mass     pseudopotential
     Fe                8.00    55.84500     Fe( 1.00)

     Starting magnetic structure 
     atomic species   magnetization
     Fe              0.325

     48 Sym. Ops., with inversion, found



   Cartesian axes

     site n.     atom                  positions (alat units)
         1        Fe     tau(   1) = (   0.0000000   0.0000000   0.0000000  )

     number of k points=     8  Methfessel-Paxton smearing, width (Ry)=  0.0200
                       cart. coord. in units 2pi/alat
        k(    1) = (   0.0000000   0.0000000   0.0000000), wk =   0.0156250
        k(    2) = (   0.2075998   0.2075998   0.0000000), wk =   0.1875000
        k(    3) = (  -0.4151996  -0.4151996   0.0000000), wk =   0.0937500
        k(    4) = (   0.4151996   0.2075998   0.2075998), wk =   0.3750000
        k(    5) = (   0.4151996   0.4151996   0.4151996), wk =   0.0312500
        k(    6) = (   0.0000000   0.0000000   0.4151996), wk =   0.0937500
        k(    7) = (  -0.8303993  -0.2075998  -0.2075998), wk =   0.1875000
        k(    8) = (  -0.8303993  -0.8303993  -0.8303993), wk =   0.0156250

     Dense  grid:     6603 G-vectors     FFT dimensions: (  25,  25,  25)

     Smooth grid:     1721 G-vectors     FFT dimensions: (  18,  18,  18)

     Estimated max dynamical RAM per process >      16.48 MB

     Estimated total dynamical RAM >      32.95 MB

     Check: negative core charge=   -0.000001
     Generating pointlists ...

     Initial potential from superposition of free atoms

     starting charge       7.9994, renormalised to       8.0000
     Starting wfcs are    6 randomized atomic wfcs +    2 random wfcs

     total cpu time spent up to now is        3.4 secs

     Self-consistent Calculation

     iteration #  1     ecut=    30.00 Ry     beta= 0.50
     Davidson diagonalization with overlap
     c_bands:  1 eigenvalues not converged
     c_bands:  1 eigenvalues not converged
     c_bands:  1 eigenvalues not converged
     c_bands:  1 eigenvalues not converged
     c_bands:  1 eigenvalues not converged
     c_bands:  1 eigenvalues not converged
     ethr =  1.00E-06,  avg # of iterations = 18.7

     total cpu time spent up to now is        3.6 secs

     total energy              =     -55.66457407 Ry
     estimated scf accuracy    <       0.38391855 Ry

     total magnetization       =     1.97 Bohr mag/cell
     absolute magnetization    =     1.97 Bohr mag/cell

     iteration #  2     ecut=    30.00 Ry     beta= 0.50
     Davidson diagonalization with overlap
     ethr =  4.80E-03,  avg # of iterations =  1.9

     total cpu time spent up to now is        3.7 secs

     total energy              =     -55.77852589 Ry
     estimated scf accuracy    <       0.10737586 Ry

     total magnetization       =     2.09 Bohr mag/cell
     absolute magnetization    =     2.12 Bohr mag/cell

     iteration #  3     ecut=    30.00 Ry     beta= 0.50
     Davidson diagonalization with overlap
     ethr =  1.34E-03,  avg # of iterations =  1.0

     total cpu time spent up to now is        3.7 secs

     total energy              =     -55.79875138 Ry
     estimated scf accuracy    <       0.00208355 Ry

     total magnetization       =     1.99 Bohr mag/cell
     absolute magnetization    =     2.02 Bohr mag/cell

     iteration #  4     ecut=    30.00 Ry     beta= 0.50
     Davidson diagonalization with overlap
     ethr =  2.60E-05,  avg # of iterations =  2.1

     total cpu time spent up to now is        3.8 secs

     total energy              =     -55.80019532 Ry
     estimated scf accuracy    <       0.00040586 Ry

     total magnetization       =     2.01 Bohr mag/cell
     absolute magnetization    =     2.07 Bohr mag/cell

     iteration #  5     ecut=    30.00 Ry     beta= 0.50
     Davidson diagonalization with overlap
     ethr =  5.07E-06,  avg # of iterations =  2.2

     total cpu time spent up to now is        3.9 secs

     total energy              =     -55.80042429 Ry
     estimated scf accuracy    <       0.00007782 Ry

     total magnetization       =     2.01 Bohr mag/cell
     absolute magnetization    =     2.09 Bohr mag/cell

     iteration #  6     ecut=    30.00 Ry     beta= 0.50
     Davidson diagonalization with overlap
     ethr =  9.73E-07,  avg # of iterations =  2.2

     total cpu time spent up to now is        3.9 secs

     total energy              =     -55.80042413 Ry
     estimated scf accuracy    <       0.00004840 Ry

     total magnetization       =     2.00 Bohr mag/cell
     absolute magnetization    =     2.09 Bohr mag/cell

     iteration #  7     ecut=    30.00 Ry     beta= 0.50
     Davidson diagonalization with overlap
     ethr =  6.05E-07,  avg # of iterations =  1.6

     total cpu time spent up to now is        4.0 secs

     total energy              =     -55.80044097 Ry
     estimated scf accuracy    <       0.00000441 Ry

     total magnetization       =     2.00 Bohr mag/cell
     absolute magnetization    =     2.10 Bohr mag/cell

     iteration #  8     ecut=    30.00 Ry     beta= 0.50
     Davidson diagonalization with overlap
     ethr =  5.52E-08,  avg # of iterations =  2.9

     total cpu time spent up to now is        4.1 secs

     total energy              =     -55.80044401 Ry
     estimated scf accuracy    <       0.00000015 Ry

     total magnetization       =     2.00 Bohr mag/cell
     absolute magnetization    =     2.10 Bohr mag/cell

     iteration #  9     ecut=    30.00 Ry     beta= 0.50
     Davidson diagonalization with overlap
     ethr =  1.87E-09,  avg # of iterations =  4.8

     total cpu time spent up to now is        4.2 secs

     total energy              =     -55.80044434 Ry
     estimated scf accuracy    <       0.00000006 Ry

     total magnetization       =     2.00 Bohr mag/cell
     absolute magnetization    =     2.10 Bohr mag/cell

     iteration # 10     ecut=    30.00 Ry     beta= 0.50
     Davidson diagonalization with overlap
     ethr =  7.67E-10,  avg # of iterations =  1.8

     total cpu time spent up to now is        4.2 secs

     total energy              =     -55.80044438 Ry
     estimated scf accuracy    <       0.00000002 Ry

     total magnetization       =     2.00 Bohr mag/cell
     absolute magnetization    =     2.10 Bohr mag/cell

     iteration # 11     ecut=    30.00 Ry     beta= 0.50
     Davidson diagonalization with overlap
     ethr =  2.59E-10,  avg # of iterations =  2.0

     total cpu time spent up to now is        4.3 secs

     total energy              =     -55.80044438 Ry
     estimated scf accuracy    <          2.7E-09 Ry

     total magnetization       =     2.00 Bohr mag/cell
     absolute magnetization    =     2.10 Bohr mag/cell

     iteration # 12     ecut=    30.00 Ry     beta= 0.50
     Davidson diagonalization with overlap
     ethr =  3.35E-11,  avg # of iterations =  3.9

     Magnetic moment per site  (integrated on atomic sphere of radius R)
     atom   1 (R=0.413)  charge=  6.2392  magn=  2.0269

     total cpu time spent up to now is        4.4 secs

     End of self-consistent calculation

 ------ SPIN UP ------------


          k = 0.0000 0.0000 0.0000 (   201 PWs)   bands (ev):

     5.3835  11.7353  11.7353  11.7353  12.8572  12.8572  38.7487  38.7487

          k = 0.2076 0.2076 0.0000 (   205 PWs)   bands (ev):

     7.6890  11.1467  11.5383  12.7340  12.9304  13.0076  29.9736  35.1899

          k =-0.4152-0.4152 0.0000 (   214 PWs)   bands (ev):

     8.9506  10.6008  12.9773  13.0582  14.5132  14.5374  21.5400  32.2917

          k = 0.4152 0.2076 0.2076 (   211 PWs)   bands (ev):

     9.8916  10.5929  11.2972  12.8778  13.3171  16.4509  25.2091  26.1416

          k = 0.4152 0.4152 0.4152 (   216 PWs)   bands (ev):

    10.7525  10.7525  10.7525  13.0958  13.0958  22.8028  22.8028  22.8028

          k = 0.0000 0.0000 0.4152 (   209 PWs)   bands (ev):

     9.2230  10.8735  12.1894  12.1894  12.9625  14.2150  31.3734  31.3743

          k =-0.8304-0.2076-0.2076 (   210 PWs)   bands (ev):

     9.6221  10.1626  12.1274  12.7393  14.3950  19.2429  22.0432  28.0567

          k =-0.8304-0.8304-0.8304 (   236 PWs)   bands (ev):

     8.9591   8.9591  14.2539  14.2539  14.2539  24.0779  24.0779  24.0779

 ------ SPIN DOWN ----------


          k = 0.0000 0.0000 0.0000 (   201 PWs)   bands (ev):

     5.5035  13.5051  13.5051  13.5051  15.7872  15.7872  38.5324  38.5324

          k = 0.2076 0.2076 0.0000 (   205 PWs)   bands (ev):

     7.9051  12.8116  13.2050  14.8915  15.3978  15.8779  30.5883  35.3093

          k =-0.4152-0.4152 0.0000 (   214 PWs)   bands (ev):

    10.1868  12.1794  14.5790  15.5902  16.0588  16.6044  22.8415  32.3493

          k = 0.4152 0.2076 0.2076 (   211 PWs)   bands (ev):

    10.8896  12.2176  12.6479  15.4127  16.0180  18.0296  26.0627  26.7828

          k = 0.4152 0.4152 0.4152 (   216 PWs)   bands (ev):

    12.0249  12.0249  12.0249  16.1096  16.1096  23.6270  23.6270  23.6270

          k = 0.0000 0.0000 0.4152 (   209 PWs)   bands (ev):

     9.8033  13.2261  13.8952  13.8952  14.8549  16.7139  31.9029  31.9029

          k =-0.8304-0.2076-0.2076 (   210 PWs)   bands (ev):

    11.3908  11.9734  13.8296  14.6661  16.4465  20.2899  23.0564  28.4930

          k =-0.8304-0.8304-0.8304 (   236 PWs)   bands (ev):

    10.8869  10.8869  16.2901  16.2901  16.2901  24.2582  24.2582  24.2582

     the Fermi energy is    14.2822 ev

!    total energy              =     -55.80044439 Ry
     estimated scf accuracy    <          1.2E-11 Ry
     smearing contrib. (-TS)   =       0.00024837 Ry
     internal energy E=F+TS    =     -55.80069276 Ry

     The total energy is F=E-TS. E is the sum of the following terms:
     one-electron contribution =       7.97440590 Ry
     hartree contribution      =       6.45050153 Ry
     xc contribution           =     -26.45489027 Ry
     ewald contribution        =     -43.77070991 Ry

     total magnetization       =     2.00 Bohr mag/cell
     absolute magnetization    =     2.10 Bohr mag/cell

     convergence has been achieved in  12 iterations

     Forces acting on atoms (cartesian axes, Ry/au):

     atom    1 type  1   force =     0.00000000    0.00000000    0.00000000

     Total force =     0.000000     Total SCF correction =     0.000000


     Computing stress (Cartesian axis) and pressure

          total   stress  (Ry/bohr**3)                   (kbar)     P=        0.95
   0.00000643   0.00000000  -0.00000000            0.95        0.00       -0.00
  -0.00000000   0.00000643  -0.00000000           -0.00        0.95       -0.00
  -0.00000000  -0.00000000   0.00000643           -0.00       -0.00        0.95

     Message from routine punch:
     Nothing written, as per user request (disk_io='none')

     init_run     :      0.45s CPU      0.47s WALL (       2 calls)
     electrons    :      2.84s CPU      3.07s WALL (       6 calls)
     update_pot   :      0.03s CPU      0.03s WALL (       4 calls)
     forces       :      0.11s CPU      0.11s WALL (       6 calls)
     stress       :      0.63s CPU      0.63s WALL (       6 calls)

     Called by init_run:
     wfcinit      :      0.02s CPU      0.02s WALL (       2 calls)
     potinit      :      0.13s CPU      0.14s WALL (       2 calls)
     hinit0       :      0.27s CPU      0.27s WALL (       2 calls)

     Called by electrons:
     c_bands      :      1.10s CPU      1.26s WALL (      52 calls)
     sum_band     :      0.96s CPU      1.01s WALL (      52 calls)
     v_of_rho     :      0.33s CPU      0.35s WALL (      56 calls)
     newd         :      0.47s CPU      0.48s WALL (      56 calls)
     mix_rho      :      0.02s CPU      0.03s WALL (      52 calls)

     Called by c_bands:
     init_us_2    :      0.04s CPU      0.05s WALL (    1888 calls)
     cegterg      :      1.02s CPU      1.16s WALL (     832 calls)

     Called by *egterg:
     cdiaghg      :      0.15s CPU      0.17s WALL (    2842 calls)
     h_psi        :      0.74s CPU      0.85s WALL (    2970 calls)
     s_psi        :      0.01s CPU      0.02s WALL (    2970 calls)
     g_psi        :      0.01s CPU      0.01s WALL (    2106 calls)

     Called by h_psi:
     h_psi:calbec :      0.04s CPU      0.04s WALL (    2970 calls)
     vloc_psi     :      0.67s CPU      0.77s WALL (    2970 calls)
     add_vuspsi   :      0.01s CPU      0.02s WALL (    2970 calls)

     General routines
     calbec       :      0.06s CPU      0.07s WALL (    5434 calls)
     fft          :      0.18s CPU      0.18s WALL (    1636 calls)
     ffts         :      0.11s CPU      0.11s WALL (     216 calls)
     fftw         :      0.65s CPU      0.75s WALL (   41770 calls)
     interpolate  :      0.12s CPU      0.12s WALL (     112 calls)

     Parallel routines

     PWSCF        :      4.22s CPU      4.49s WALL


   This run was terminated on:  17:51:16  20Oct2025            

=------------------------------------------------------------------------------=
   JOB DONE.
=------------------------------------------------------------------------------=
