
     Program PWSCF v.7.4.1 starts on  8Oct2025 at 21:40:57 

     This program is part of the open-source Quantum ESPRESSO suite
     for quantum simulation of materials; please cite
         "P. Giannozzi et al., J. Phys.:Condens. Matter 21 395502 (2009);
         "P. Giannozzi et al., J. Phys.:Condens. Matter 29 465901 (2017);
         "P. Giannozzi et al., J. Chem. Phys. 152 154105 (2020);
          URL http://www.quantum-espresso.org", 
     in publications or presentations arising from this work. More details at
     http://www.quantum-espresso.org/quote

     Parallel version (MPI), running on     1 processors

     MPI processes distributed on     1 nodes
     646 MiB available memory on the printing compute node when the environment starts

     Waiting for input...
     Reading input from standard input
Warning: card &CELL ignored
Warning: card / ignored

     Current dimensions of program PWSCF are:
     Max number of different atomic species (ntypx) = 10
     Max number of k-points (npk) =  40000
     Max angular momentum in pseudopotentials (lmaxx) =  4
     Message from routine find_sym:
     Not a group! Trying with lower acceptance parameter...
     Message from routine find_sym:
     Still not a group! symmetry disabled

     Subspace diagonalization in iterative solution of the eigenvalue problem:
     a serial algorithm will be used


     G-vector sticks info
     --------------------
     sticks:   dense  smooth     PW     G-vecs:    dense   smooth      PW
     Sum         547     547    163                 8291     8291    1459

     Using Slab Decomposition



     bravais-lattice index     =            0
     lattice parameter (alat)  =       7.4651  a.u.
     unit-cell volume          =     294.1676 (a.u.)^3
     number of atoms/cell      =            2
     number of atomic types    =            1
     number of electrons       =        28.00
     number of Kohn-Sham states=           14
     kinetic-energy cutoff     =      35.0000  Ry
     charge density cutoff     =     140.0000  Ry
     scf convergence threshold =      1.0E-07
     mixing beta               =       0.5000
     number of iterations used =            8  plain     mixing
     Exchange-correlation=  SLA  PZ   NOGX NOGC
                           (   1   1   0   0   0   0   0)

     celldm(1)=   7.465117  celldm(2)=   0.000000  celldm(3)=   0.000000
     celldm(4)=   0.000000  celldm(5)=   0.000000  celldm(6)=   0.000000

     crystal axes: (cart. coord. in units of alat)
               a(1) = (   0.000000   0.707107   0.707107 )  
               a(2) = (   0.707107   0.000000   0.707107 )  
               a(3) = (   0.707107   0.707107   0.000000 )  

     reciprocal axes: (cart. coord. in units 2 pi/alat)
               b(1) = ( -0.707107  0.707107  0.707107 )  
               b(2) = (  0.707107 -0.707107  0.707107 )  
               b(3) = (  0.707107  0.707107 -0.707107 )  


     PseudoPot. # 1 for Ge read from file:
     /home/bond/Software/QE/qe-7.4.1/pseudo/ge_lda_v1.4.uspp.F.UPF
     MD5 check sum: bf9d52b59cc8a669818bb2b52e0c2ba0
     Pseudo is Ultrasoft + core correction, Zval = 14.0
     Generated by new atomic code, or converted to UPF format
     Using radial grid of  873 points,  6 beta functions with: 
                l(1) =   0
                l(2) =   0
                l(3) =   1
                l(4) =   1
                l(5) =   2
                l(6) =   2
     Q(r) pseudized with  8 coefficients,  rinner =    1.400   1.400   1.400
                                                       1.400   1.400

     atomic species   valence    mass     pseudopotential
     Ge               14.00    72.63000     Ge( 1.00)

     No symmetry found



   Cartesian axes

     site n.     atom                  positions (alat units)
         1        Ge     tau(   1) = (   0.0000000   0.0000000   0.0000000  )
         2        Ge     tau(   2) = (   0.3535542   0.3535542   0.3535542  )

     number of k points=   504

     Number of k-points >= 100: set verbosity='high' to print them.

     Dense  grid:     8291 G-vectors     FFT dimensions: (  32,  32,  32)

     Estimated max dynamical RAM per process >     143.65 MB

     Check: negative core charge=   -0.000011

     Initial potential from superposition of free atoms

     starting charge      27.9986, renormalised to      28.0000
     Starting wfcs are   18 randomized atomic wfcs

     total cpu time spent up to now is        4.8 secs

     Self-consistent Calculation

     iteration #  1     ecut=    35.00 Ry     beta= 0.50
     Davidson diagonalization with overlap
     ethr =  1.00E-02,  avg # of iterations =  1.8

     Threshold (ethr) on eigenvalues was too large:
     Diagonalizing with lowered threshold

     Davidson diagonalization with overlap
     ethr =  1.24E-04,  avg # of iterations =  2.0

     total cpu time spent up to now is       21.6 secs

     total energy              =    -426.16983081 Ry
     estimated scf accuracy    <       0.03675631 Ry

     iteration #  2     ecut=    35.00 Ry     beta= 0.50
     Davidson diagonalization with overlap
     ethr =  1.31E-04,  avg # of iterations =  1.0

     total cpu time spent up to now is       29.4 secs

     total energy              =    -426.16846088 Ry
     estimated scf accuracy    <       0.00636217 Ry

     iteration #  3     ecut=    35.00 Ry     beta= 0.50
     Davidson diagonalization with overlap
     ethr =  2.27E-05,  avg # of iterations =  2.0

     total cpu time spent up to now is       38.3 secs

     total energy              =    -426.16895637 Ry
     estimated scf accuracy    <       0.00007130 Ry

     iteration #  4     ecut=    35.00 Ry     beta= 0.50
     Davidson diagonalization with overlap
     ethr =  2.55E-07,  avg # of iterations =  3.5

     total cpu time spent up to now is       49.9 secs

     total energy              =    -426.16898081 Ry
     estimated scf accuracy    <       0.00000287 Ry

     iteration #  5     ecut=    35.00 Ry     beta= 0.50
     Davidson diagonalization with overlap
     ethr =  1.02E-08,  avg # of iterations =  3.5

     total cpu time spent up to now is       61.4 secs

     total energy              =    -426.16898170 Ry
     estimated scf accuracy    <       0.00000010 Ry

     iteration #  6     ecut=    35.00 Ry     beta= 0.50
     Davidson diagonalization with overlap
     ethr =  3.71E-10,  avg # of iterations =  3.6

     total cpu time spent up to now is       73.6 secs

     End of self-consistent calculation

     Number of k-points >= 100: set verbosity='high' to print the bands.

     highest occupied level (ev):     8.6582

!    total energy              =    -426.16898175 Ry
     estimated scf accuracy    <       0.00000002 Ry

     The total energy is the sum of the following terms:
     one-electron contribution =    -274.95746670 Ry
     hartree contribution      =     163.38823422 Ry
     xc contribution           =    -114.58356671 Ry
     ewald contribution        =    -200.01618255 Ry

     convergence has been achieved in   6 iterations

     Forces acting on atoms (cartesian axes, Ry/au):

     atom    1 type  1   force =     0.00000471    0.00000244    0.00000529
     atom    2 type  1   force =    -0.00000471   -0.00000244   -0.00000529

     Total force =     0.000011     Total SCF correction =     0.000066
     SCF correction compared to forces is large: reduce conv_thr to get better values


     Computing stress (Cartesian axis) and pressure

          total   stress  (Ry/bohr**3)                   (kbar)     P=        0.36
   0.00000243  -0.00000001  -0.00000001            0.36       -0.00       -0.00
  -0.00000001   0.00000243  -0.00000000           -0.00        0.36       -0.00
  -0.00000001  -0.00000000   0.00000243           -0.00       -0.00        0.36

     Message from routine punch:
     Nothing written, as per user request (disk_io='none')

     init_run     :      4.54s CPU      4.70s WALL (       1 calls)
     electrons    :     67.60s CPU     68.77s WALL (       1 calls)
     forces       :      0.54s CPU      0.54s WALL (       1 calls)
     stress       :      2.88s CPU      2.90s WALL (       1 calls)

     Called by init_run:
     wfcinit      :      4.15s CPU      4.31s WALL (       1 calls)
     potinit      :      0.01s CPU      0.01s WALL (       1 calls)
     hinit0       :      0.30s CPU      0.30s WALL (       1 calls)

     Called by electrons:
     c_bands      :     58.11s CPU     59.09s WALL (       7 calls)
     sum_band     :      9.34s CPU      9.53s WALL (       7 calls)
     v_of_rho     :      0.01s CPU      0.01s WALL (       7 calls)
     newd         :      0.15s CPU      0.16s WALL (       7 calls)
     mix_rho      :      0.00s CPU      0.00s WALL (       7 calls)

     Called by c_bands:
     init_us_2    :      2.18s CPU      2.23s WALL (    8568 calls)
     cegterg      :     52.83s CPU     53.67s WALL (    3528 calls)

     Called by *egterg:
     cdiaghg      :      2.15s CPU      2.19s WALL (   11841 calls)
     h_psi        :     47.27s CPU     48.12s WALL (   12849 calls)
     s_psi        :      1.28s CPU      1.31s WALL (   12849 calls)
     g_psi        :      0.33s CPU      0.34s WALL (    8817 calls)

     Called by h_psi:
     h_psi:calbec :      1.66s CPU      1.69s WALL (   12849 calls)
     vloc_psi     :     43.89s CPU     44.69s WALL (   12849 calls)
     add_vuspsi   :      1.35s CPU      1.38s WALL (   12849 calls)

     General routines
     calbec       :      3.09s CPU      3.14s WALL (   24945 calls)
     fft          :      0.15s CPU      0.15s WALL (      37 calls)
     ffts         :      0.00s CPU      0.00s WALL (       7 calls)
     fftw         :     43.39s CPU     44.20s WALL (  322892 calls)

     Parallel routines

     PWSCF        :   1m15.63s CPU   1m17.00s WALL


   This run was terminated on:  21:42:14   8Oct2025            

=------------------------------------------------------------------------------=
   JOB DONE.
=------------------------------------------------------------------------------=
