LAMMPS (22 Jul 2025 - Update 1)
Reading data file ...
  orthogonal box = (0 0 0) to (8.7451919 7.5735584 10.76028)
  1 by 1 by 1 MPI processor grid
  reading atoms ...
  27 atoms
  read_data CPU = 0.001 seconds
WARNING: No fixes with time integration, atoms won't move
For more information see https://docs.lammps.org/err0028 (../verlet.cpp:60)
Generated 0 of 0 mixed pair_coeff terms from geometric mixing rule
Neighbor list info ...
  update: every = 1 steps, delay = 0 steps, check = yes
  max neighbors/atom: 2000, page size: 100000
  master list distance cutoff = 6.5
  ghost atom cutoff = 6.5
  binsize = 3.25, bins = 3 3 4
  1 neighbor lists, perpetual/occasional/extra = 1 0 0
  (1) pair lj/cut, perpetual
      attributes: half, newton on
      pair build: half/bin/atomonly/newton
      stencil: half/bin/3d
      bin: standard
Setting up Verlet run ...
  Unit style    : metal
  Current step  : 0
  Time step     : 0.001
Per MPI rank memory allocation (min/avg/max) = 3.052 | 3.052 | 3.052 Mbytes
   Step         PotEng           Lx             Ly             Lz           Press           Pxx            Pyy            Pzz      
         0  -46.546213      8.7451919      7.5735584      10.76028       140555.28     -19678.871      350250.66      91094.042    
Loop time of 1.818e-06 on 1 procs for 0 steps with 27 atoms

110.0% CPU use with 1 MPI tasks x no OpenMP threads

MPI task timing breakdown:
Section |  min time  |  avg time  |  max time  |%varavg| %total
---------------------------------------------------------------
Pair    | 0          | 0          | 0          |   0.0 |  0.00
Neigh   | 0          | 0          | 0          |   0.0 |  0.00
Comm    | 0          | 0          | 0          |   0.0 |  0.00
Output  | 0          | 0          | 0          |   0.0 |  0.00
Modify  | 0          | 0          | 0          |   0.0 |  0.00
Other   |            | 1.818e-06  |            |       |100.00

Nlocal:             27 ave          27 max          27 min
Histogram: 1 0 0 0 0 0 0 0 0 0
Nghost:            154 ave         154 max         154 min
Histogram: 1 0 0 0 0 0 0 0 0 0
Neighs:            549 ave         549 max         549 min
Histogram: 1 0 0 0 0 0 0 0 0 0

Total # of neighbors = 549
Ave neighs/atom = 20.333333
Neighbor list builds = 0
Dangerous builds = 0
Generated 0 of 0 mixed pair_coeff terms from geometric mixing rule
Setting up cg style minimization ...
  Unit style    : metal
  Current step  : 0
WARNING: Energy due to 3 extra global DOFs will be included in minimizer energies
 (../min.cpp:222)
Per MPI rank memory allocation (min/avg/max) = 4.177 | 4.177 | 4.177 Mbytes
   Step         PotEng           Lx             Ly             Lz           Press           Pxx            Pyy            Pzz      
         0  -46.546213      8.7451919      7.5735584      10.76028       140555.28     -19678.871      350250.66      91094.042    
        47  -50.220981      9.0705683      7.8553426      10.76028       22073.729     -84193.616      104031.53      46383.272    
Loop time of 0.00219688 on 1 procs for 47 steps with 27 atoms

100.0% CPU use with 1 MPI tasks x no OpenMP threads

Minimization stats:
  Stopping criterion = linesearch alpha is zero
  Energy initial, next-to-last, final = 
     -46.5462130439663  -50.2209812882513  -50.2209812882513
  Force two-norm initial, final = 109.54662 21.929242
  Force max component initial, final = 73.52217 5.3299135
  Final line search alpha, max atom move = 1.302466e-11 6.9420312e-11
  Iterations, force evaluations = 47 170

MPI task timing breakdown:
Section |  min time  |  avg time  |  max time  |%varavg| %total
---------------------------------------------------------------
Pair    | 0.0012787  | 0.0012787  | 0.0012787  |   0.0 | 58.20
Neigh   | 0          | 0          | 0          |   0.0 |  0.00
Comm    | 0.00013683 | 0.00013683 | 0.00013683 |   0.0 |  6.23
Output  | 0          | 0          | 0          |   0.0 |  0.00
Modify  | 0          | 0          | 0          |   0.0 |  0.00
Other   |            | 0.0007814  |            |       | 35.57

Nlocal:             27 ave          27 max          27 min
Histogram: 1 0 0 0 0 0 0 0 0 0
Nghost:            154 ave         154 max         154 min
Histogram: 1 0 0 0 0 0 0 0 0 0
Neighs:            549 ave         549 max         549 min
Histogram: 1 0 0 0 0 0 0 0 0 0

Total # of neighbors = 549
Ave neighs/atom = 20.333333
Neighbor list builds = 0
Dangerous builds = 0
Total energy (eV) = -50.2209812882513
Number of atoms = 27
Lattice constant (Angstoms) = 9.07056831886227
Total wall time: 0:00:00
