LAMMPS (22 Jul 2025 - Update 1)
Reading data file ...
  orthogonal box = (0 0 0) to (8.7451919 7.5735584 21.140419)
  1 by 1 by 1 MPI processor grid
  reading atoms ...
  36 atoms
  read_data CPU = 0.001 seconds
WARNING: No fixes with time integration, atoms won't move
For more information see https://docs.lammps.org/err0028 (../verlet.cpp:60)
Generated 0 of 0 mixed pair_coeff terms from geometric mixing rule
Neighbor list info ...
  update: every = 1 steps, delay = 0 steps, check = yes
  max neighbors/atom: 2000, page size: 100000
  master list distance cutoff = 6.5
  ghost atom cutoff = 6.5
  binsize = 3.25, bins = 3 3 7
  1 neighbor lists, perpetual/occasional/extra = 1 0 0
  (1) pair lj/cut, perpetual
      attributes: half, newton on
      pair build: half/bin/atomonly/newton
      stencil: half/bin/3d
      bin: standard
Setting up Verlet run ...
  Unit style    : metal
  Current step  : 0
  Time step     : 0.001
Per MPI rank memory allocation (min/avg/max) = 3.053 | 3.053 | 3.053 Mbytes
   Step         PotEng           Lx             Ly             Lz           Press           Pxx            Pyy            Pzz      
         0  -67.508387      8.7451919      7.5735584      21.140419      87348.904     -13452.906      232984.52      42515.1      
Loop time of 2.007e-06 on 1 procs for 0 steps with 36 atoms

99.7% CPU use with 1 MPI tasks x no OpenMP threads

MPI task timing breakdown:
Section |  min time  |  avg time  |  max time  |%varavg| %total
---------------------------------------------------------------
Pair    | 0          | 0          | 0          |   0.0 |  0.00
Neigh   | 0          | 0          | 0          |   0.0 |  0.00
Comm    | 0          | 0          | 0          |   0.0 |  0.00
Output  | 0          | 0          | 0          |   0.0 |  0.00
Modify  | 0          | 0          | 0          |   0.0 |  0.00
Other   |            | 2.007e-06  |            |       |100.00

Nlocal:             36 ave          36 max          36 min
Histogram: 1 0 0 0 0 0 0 0 0 0
Nghost:            206 ave         206 max         206 min
Histogram: 1 0 0 0 0 0 0 0 0 0
Neighs:            819 ave         819 max         819 min
Histogram: 1 0 0 0 0 0 0 0 0 0

Total # of neighbors = 819
Ave neighs/atom = 22.75
Neighbor list builds = 0
Dangerous builds = 0
Generated 0 of 0 mixed pair_coeff terms from geometric mixing rule
Setting up cg style minimization ...
  Unit style    : metal
  Current step  : 0
WARNING: Energy due to 3 extra global DOFs will be included in minimizer energies
 (../min.cpp:222)
Per MPI rank memory allocation (min/avg/max) = 4.178 | 4.178 | 4.178 Mbytes
   Step         PotEng           Lx             Ly             Lz           Press           Pxx            Pyy            Pzz      
         0  -67.508387      8.7451919      7.5735584      21.140419      87348.904     -13452.906      232984.52      42515.1      
        50  -71.952735      9.0744963      7.8587443      21.140419      7711.3537     -58651.575      66665.812      15119.824    
Loop time of 0.00356024 on 1 procs for 50 steps with 36 atoms

100.0% CPU use with 1 MPI tasks x no OpenMP threads

Minimization stats:
  Stopping criterion = linesearch alpha is zero
  Energy initial, next-to-last, final = 
     -67.5083866180268  -71.9527348184818  -71.9527348184818
  Force two-norm initial, final = 140.80626 23.185038
  Force max component initial, final = 95.926729 5.42756
  Final line search alpha, max atom move = 1.6402958e-11 8.9028037e-11
  Iterations, force evaluations = 50 202

MPI task timing breakdown:
Section |  min time  |  avg time  |  max time  |%varavg| %total
---------------------------------------------------------------
Pair    | 0.0021647  | 0.0021647  | 0.0021647  |   0.0 | 60.80
Neigh   | 0          | 0          | 0          |   0.0 |  0.00
Comm    | 0.00020589 | 0.00020589 | 0.00020589 |   0.0 |  5.78
Output  | 0          | 0          | 0          |   0.0 |  0.00
Modify  | 0          | 0          | 0          |   0.0 |  0.00
Other   |            | 0.00119    |            |       | 33.42

Nlocal:             36 ave          36 max          36 min
Histogram: 1 0 0 0 0 0 0 0 0 0
Nghost:            206 ave         206 max         206 min
Histogram: 1 0 0 0 0 0 0 0 0 0
Neighs:            819 ave         819 max         819 min
Histogram: 1 0 0 0 0 0 0 0 0 0

Total # of neighbors = 819
Ave neighs/atom = 22.75
Neighbor list builds = 0
Dangerous builds = 0
Total energy (eV) = -71.9527348184818
Number of atoms = 36
Lattice constant (Angstoms) = 9.07449628303303
Total wall time: 0:00:00
