
     Program PWSCF v.7.4.1 starts on  8Oct2025 at  2:11:25 

     This program is part of the open-source Quantum ESPRESSO suite
     for quantum simulation of materials; please cite
         "P. Giannozzi et al., J. Phys.:Condens. Matter 21 395502 (2009);
         "P. Giannozzi et al., J. Phys.:Condens. Matter 29 465901 (2017);
         "P. Giannozzi et al., J. Chem. Phys. 152 154105 (2020);
          URL http://www.quantum-espresso.org", 
     in publications or presentations arising from this work. More details at
     http://www.quantum-espresso.org/quote

     Parallel version (MPI), running on     1 processors

     MPI processes distributed on     1 nodes
     474 MiB available memory on the printing compute node when the environment starts

     Waiting for input...
     Reading input from standard input
Warning: card &CELL ignored
Warning: card / ignored

     Current dimensions of program PWSCF are:
     Max number of different atomic species (ntypx) = 10
     Max number of k-points (npk) =  40000
     Max angular momentum in pseudopotentials (lmaxx) =  4
     Message from routine find_sym:
     Not a group! Trying with lower acceptance parameter...
     Message from routine find_sym:
     Still not a group! symmetry disabled

     Subspace diagonalization in iterative solution of the eigenvalue problem:
     a serial algorithm will be used


     G-vector sticks info
     --------------------
     sticks:   dense  smooth     PW     G-vecs:    dense   smooth      PW
     Sum         397     397    127                 5209     5209     965

     Using Slab Decomposition



     bravais-lattice index     =            0
     lattice parameter (alat)  =       7.6314  a.u.
     unit-cell volume          =     314.2668 (a.u.)^3
     number of atoms/cell      =            2
     number of atomic types    =            1
     number of electrons       =        28.00
     number of Kohn-Sham states=           14
     kinetic-energy cutoff     =      25.0000  Ry
     charge density cutoff     =     100.0000  Ry
     scf convergence threshold =      1.0E-07
     mixing beta               =       0.5000
     number of iterations used =            8  plain     mixing
     Exchange-correlation=  SLA  PZ   NOGX NOGC
                           (   1   1   0   0   0   0   0)

     celldm(1)=   7.631405  celldm(2)=   0.000000  celldm(3)=   0.000000
     celldm(4)=   0.000000  celldm(5)=   0.000000  celldm(6)=   0.000000

     crystal axes: (cart. coord. in units of alat)
               a(1) = (   0.000000   0.707107   0.707107 )  
               a(2) = (   0.707107   0.000000   0.707107 )  
               a(3) = (   0.707107   0.707107   0.000000 )  

     reciprocal axes: (cart. coord. in units 2 pi/alat)
               b(1) = ( -0.707107  0.707107  0.707107 )  
               b(2) = (  0.707107 -0.707107  0.707107 )  
               b(3) = (  0.707107  0.707107 -0.707107 )  


     PseudoPot. # 1 for Ge read from file:
     /home/bond/Software/QE/qe-7.4.1/pseudo/ge_lda_v1.4.uspp.F.UPF
     MD5 check sum: bf9d52b59cc8a669818bb2b52e0c2ba0
     Pseudo is Ultrasoft + core correction, Zval = 14.0
     Generated by new atomic code, or converted to UPF format
     Using radial grid of  873 points,  6 beta functions with: 
                l(1) =   0
                l(2) =   0
                l(3) =   1
                l(4) =   1
                l(5) =   2
                l(6) =   2
     Q(r) pseudized with  8 coefficients,  rinner =    1.400   1.400   1.400
                                                       1.400   1.400

     atomic species   valence    mass     pseudopotential
     Ge               14.00    72.63000     Ge( 1.00)

     No symmetry found



   Cartesian axes

     site n.     atom                  positions (alat units)
         1        Ge     tau(   1) = (   0.0000000   0.0000000   0.0000000  )
         2        Ge     tau(   2) = (   0.3535539   0.3535539   0.3535539  )

     number of k points=   504

     Number of k-points >= 100: set verbosity='high' to print them.

     Dense  grid:     5209 G-vectors     FFT dimensions: (  32,  32,  32)

     Estimated max dynamical RAM per process >      93.08 MB

     Check: negative core charge=   -0.000726

     Initial potential from superposition of free atoms

     starting charge      27.9986, renormalised to      28.0000
     Starting wfcs are   18 randomized atomic wfcs

     total cpu time spent up to now is        4.8 secs

     Self-consistent Calculation

     iteration #  1     ecut=    25.00 Ry     beta= 0.50
     Davidson diagonalization with overlap
     ethr =  1.00E-02,  avg # of iterations =  1.7

     Threshold (ethr) on eigenvalues was too large:
     Diagonalizing with lowered threshold

     Davidson diagonalization with overlap
     ethr =  1.54E-04,  avg # of iterations =  2.0

     total cpu time spent up to now is       20.7 secs

     total energy              =    -425.91802007 Ry
     estimated scf accuracy    <       0.04730678 Ry

     iteration #  2     ecut=    25.00 Ry     beta= 0.50
     Davidson diagonalization with overlap
     ethr =  1.69E-04,  avg # of iterations =  1.0

     total cpu time spent up to now is       28.3 secs

     total energy              =    -425.91881066 Ry
     estimated scf accuracy    <       0.00635243 Ry

     iteration #  3     ecut=    25.00 Ry     beta= 0.50
     Davidson diagonalization with overlap
     ethr =  2.27E-05,  avg # of iterations =  2.0

     total cpu time spent up to now is       37.1 secs

     total energy              =    -425.91935757 Ry
     estimated scf accuracy    <       0.00012955 Ry

     iteration #  4     ecut=    25.00 Ry     beta= 0.50
     Davidson diagonalization with overlap
     ethr =  4.63E-07,  avg # of iterations =  3.8

     total cpu time spent up to now is       48.1 secs

     total energy              =    -425.91939457 Ry
     estimated scf accuracy    <       0.00000833 Ry

     iteration #  5     ecut=    25.00 Ry     beta= 0.50
     Davidson diagonalization with overlap
     ethr =  2.98E-08,  avg # of iterations =  2.4

     total cpu time spent up to now is       57.7 secs

     total energy              =    -425.91939598 Ry
     estimated scf accuracy    <       0.00000035 Ry

     iteration #  6     ecut=    25.00 Ry     beta= 0.50
     Davidson diagonalization with overlap
     c_bands:  2 eigenvalues not converged
     ethr =  1.25E-09,  avg # of iterations =  3.3

     total cpu time spent up to now is       69.4 secs

     End of self-consistent calculation

     Number of k-points >= 100: set verbosity='high' to print the bands.

     highest occupied level (ev):     7.7843

!    total energy              =    -425.91939618 Ry
     estimated scf accuracy    <       0.00000005 Ry

     The total energy is the sum of the following terms:
     one-electron contribution =    -281.22708559 Ry
     hartree contribution      =     165.25420046 Ry
     xc contribution           =    -114.28865777 Ry
     ewald contribution        =    -195.65785328 Ry

     convergence has been achieved in   6 iterations

     Forces acting on atoms (cartesian axes, Ry/au):

     atom    1 type  1   force =     0.00013636    0.00021081   -0.00028420
     atom    2 type  1   force =    -0.00013636   -0.00021081    0.00028420

     Total force =     0.000536     Total SCF correction =     0.000190
     SCF correction compared to forces is large: reduce conv_thr to get better values


     Computing stress (Cartesian axis) and pressure

          total   stress  (Ry/bohr**3)                   (kbar)     P=     -754.48
  -0.00513022  -0.00000023   0.00000018         -754.68       -0.03        0.03
  -0.00000023  -0.00512835   0.00000011           -0.03     -754.41        0.02
   0.00000018   0.00000011  -0.00512804            0.03        0.02     -754.36

     Message from routine punch:
     Nothing written, as per user request (disk_io='none')

     init_run     :      4.57s CPU      4.69s WALL (       1 calls)
     electrons    :     63.46s CPU     64.56s WALL (       1 calls)
     forces       :      0.50s CPU      0.50s WALL (       1 calls)
     stress       :      2.82s CPU      2.83s WALL (       1 calls)

     Called by init_run:
     wfcinit      :      4.14s CPU      4.25s WALL (       1 calls)
     potinit      :      0.02s CPU      0.02s WALL (       1 calls)
     hinit0       :      0.34s CPU      0.34s WALL (       1 calls)

     Called by electrons:
     c_bands      :     54.40s CPU     55.34s WALL (       7 calls)
     sum_band     :      8.93s CPU      9.09s WALL (       7 calls)
     v_of_rho     :      0.02s CPU      0.02s WALL (       7 calls)
     newd         :      0.13s CPU      0.13s WALL (       7 calls)
     mix_rho      :      0.00s CPU      0.00s WALL (       7 calls)

     Called by c_bands:
     init_us_2    :      2.08s CPU      2.12s WALL (    8568 calls)
     cegterg      :     49.72s CPU     50.55s WALL (    3528 calls)

     Called by *egterg:
     cdiaghg      :      2.92s CPU      2.98s WALL (   11188 calls)
     h_psi        :     44.25s CPU     45.05s WALL (   12196 calls)
     s_psi        :      1.09s CPU      1.11s WALL (   12196 calls)
     g_psi        :      0.24s CPU      0.25s WALL (    8164 calls)

     Called by h_psi:
     h_psi:calbec :      1.58s CPU      1.60s WALL (   12196 calls)
     vloc_psi     :     41.09s CPU     41.84s WALL (   12196 calls)
     add_vuspsi   :      1.18s CPU      1.20s WALL (   12196 calls)

     General routines
     calbec       :      2.99s CPU      3.03s WALL (   24292 calls)
     fft          :      0.17s CPU      0.17s WALL (      37 calls)
     ffts         :      0.00s CPU      0.00s WALL (       7 calls)
     fftw         :     37.83s CPU     38.55s WALL (  314008 calls)

     Parallel routines

     PWSCF        :   1m11.50s CPU   1m12.74s WALL


   This run was terminated on:   2:12:38   8Oct2025            

=------------------------------------------------------------------------------=
   JOB DONE.
=------------------------------------------------------------------------------=
