
     Program PWSCF v.7.4.1 starts on 21Oct2025 at 13: 0: 8 

     This program is part of the open-source Quantum ESPRESSO suite
     for quantum simulation of materials; please cite
         "P. Giannozzi et al., J. Phys.:Condens. Matter 21 395502 (2009);
         "P. Giannozzi et al., J. Phys.:Condens. Matter 29 465901 (2017);
         "P. Giannozzi et al., J. Chem. Phys. 152 154105 (2020);
          URL http://www.quantum-espresso.org", 
     in publications or presentations arising from this work. More details at
     http://www.quantum-espresso.org/quote

     Parallel version (MPI), running on     2 processors

     MPI processes distributed on     1 nodes
     804 MiB available memory on the printing compute node when the environment starts

     Waiting for input...
     Reading input from standard input
Warning: card &CELL ignored
Warning: card / ignored

     Current dimensions of program PWSCF are:
     Max number of different atomic species (ntypx) = 10
     Max number of k-points (npk) =  40000
     Max angular momentum in pseudopotentials (lmaxx) =  4
     file O.pz-rrkjus.UPF: wavefunction(s)  2S renormalized
     Message from routine setup:
     using ibrav=0 with symmetry is DISCOURAGED, use correct ibrav instead

     R & G space division:  proc/nbgrp/npool/nimage =       2
     Subspace diagonalization in iterative solution of the eigenvalue problem:
     a serial algorithm will be used


     Parallelization info
     --------------------
     sticks:   dense  smooth     PW     G-vecs:    dense   smooth      PW
     Min         516     254     74                12286     4354     709
     Max         517     255     75                12287     4355     710
     Sum        1033     509    149                24573     8709    1419

     Using Slab Decomposition



     bravais-lattice index     =            0
     lattice parameter (alat)  =       7.3227  a.u.
     unit-cell volume          =     392.6555 (a.u.)^3
     number of atoms/cell      =            5
     number of atomic types    =            3
     number of electrons       =        44.00
     number of Kohn-Sham states=           22
     kinetic-energy cutoff     =      30.0000  Ry
     charge density cutoff     =     240.0000  Ry
     scf convergence threshold =      1.0E-07
     mixing beta               =       0.7000
     number of iterations used =            8  plain     mixing
     energy convergence thresh.=      1.0E-04
     force convergence thresh. =      1.0E-03
     Exchange-correlation= SLA  PZ   NOGX NOGC
                           (   1   1   0   0   0   0   0)
     nstep                     =           50


     celldm(1)=   7.322689  celldm(2)=   0.000000  celldm(3)=   0.000000
     celldm(4)=   0.000000  celldm(5)=   0.000000  celldm(6)=   0.000000

     crystal axes: (cart. coord. in units of alat)
               a(1) = (   1.000000   0.000000   0.000000 )  
               a(2) = (   0.000000   1.000000   0.000000 )  
               a(3) = (   0.000000   0.000000   1.000000 )  

     reciprocal axes: (cart. coord. in units 2 pi/alat)
               b(1) = (  1.000000  0.000000  0.000000 )  
               b(2) = (  0.000000  1.000000  0.000000 )  
               b(3) = (  0.000000  0.000000  1.000000 )  


     PseudoPot. # 1 for O  read from file:
     /home/bond/Software/QE/qe-7.4.1/pseudo/O.pz-rrkjus.UPF
     MD5 check sum: 24fb942a68ef5d262e498166c462ef4a
     Pseudo is Ultrasoft, Zval =  6.0
     Generated by new atomic code, or converted to UPF format
     Using radial grid of 1269 points,  4 beta functions with: 
                l(1) =   0
                l(2) =   0
                l(3) =   1
                l(4) =   1
     Q(r) pseudized with 0 coefficients 


     PseudoPot. # 2 for Pb read from file:
     /home/bond/Software/QE/qe-7.4.1/pseudo/Pb.pz-d-van.UPF
     MD5 check sum: 4e1e5920686a026ae26139ac417581ff
     Pseudo is Ultrasoft, Zval = 14.0
     Generated by new atomic code, or converted to UPF format
     Using radial grid of  899 points,  6 beta functions with: 
                l(1) =   0
                l(2) =   0
                l(3) =   1
                l(4) =   1
                l(5) =   2
                l(6) =   2
     Q(r) pseudized with  8 coefficients,  rinner =    1.000   1.000   1.000
                                                       1.000   1.000

     PseudoPot. # 3 for Ti read from file:
     /home/bond/Software/QE/qe-7.4.1/pseudo/Ti.pz-sp-van_ak.UPF
     MD5 check sum: 545d0e6e05332b8871a8093f427cb0ca
     Pseudo is Ultrasoft, Zval = 12.0
     Generated by new atomic code, or converted to UPF format
     Using radial grid of  851 points,  6 beta functions with: 
                l(1) =   0
                l(2) =   0
                l(3) =   1
                l(4) =   1
                l(5) =   2
                l(6) =   2
     Q(r) pseudized with  8 coefficients,  rinner =    1.000   1.000   1.000
                                                       1.000   1.000

     atomic species   valence    mass     pseudopotential
     O                 6.00    15.99900     O ( 1.00)
     Pb               14.00   207.20000     Pb( 1.00)
     Ti               12.00    47.86700     Ti( 1.00)

      8 Sym. Ops. (no inversion) found



   Cartesian axes

     site n.     atom                  positions (alat units)
         1        Pb     tau(   1) = (   0.0000000   0.0000000   0.0000000  )
         2        Ti     tau(   2) = (   0.5000000   0.5000000   0.5100000  )
         3        O      tau(   3) = (   0.0000000   0.5000000   0.5000000  )
         4        O      tau(   4) = (   0.5000000   0.0000000   0.5000000  )
         5        O      tau(   5) = (   0.5000000   0.5000000   0.0000000  )

     number of k points=     6
                       cart. coord. in units 2pi/alat
        k(    1) = (   0.1250000   0.1250000   0.1250000), wk =   0.2500000
        k(    2) = (   0.1250000   0.1250000   0.3750000), wk =   0.2500000
        k(    3) = (   0.1250000   0.3750000   0.3750000), wk =   0.5000000
        k(    4) = (   0.3750000   0.3750000   0.3750000), wk =   0.2500000
        k(    5) = (   0.3750000  -0.1250000   0.1250000), wk =   0.5000000
        k(    6) = (   0.3750000  -0.3750000   0.1250000), wk =   0.2500000

     Dense  grid:    24573 G-vectors     FFT dimensions: (  40,  40,  40)

     Smooth grid:     8709 G-vectors     FFT dimensions: (  25,  25,  25)

     Estimated max dynamical RAM per process >      51.19 MB

     Estimated total dynamical RAM >     102.38 MB

     Initial potential from superposition of free atoms

     starting charge      42.9982, renormalised to      44.0000
     Starting wfcs are   31 randomized atomic wfcs

     total cpu time spent up to now is        1.8 secs

     Self-consistent Calculation

     iteration #  1     ecut=    30.00 Ry     beta= 0.70
     Davidson diagonalization with overlap
     ethr =  1.00E-02,  avg # of iterations =  2.0

     total cpu time spent up to now is        2.3 secs

     total energy              =    -332.61842560 Ry
     estimated scf accuracy    <       1.09862934 Ry

     iteration #  2     ecut=    30.00 Ry     beta= 0.70
     Davidson diagonalization with overlap
     ethr =  2.50E-03,  avg # of iterations =  6.5

     total cpu time spent up to now is        2.8 secs

     total energy              =    -332.37852213 Ry
     estimated scf accuracy    <       4.18775885 Ry

     iteration #  3     ecut=    30.00 Ry     beta= 0.70
     Davidson diagonalization with overlap
     ethr =  2.50E-03,  avg # of iterations =  5.3

     total cpu time spent up to now is        3.2 secs

     total energy              =    -333.15915840 Ry
     estimated scf accuracy    <       0.21849459 Ry

     iteration #  4     ecut=    30.00 Ry     beta= 0.70
     Davidson diagonalization with overlap
     ethr =  4.97E-04,  avg # of iterations =  2.0

     total cpu time spent up to now is        3.6 secs

     total energy              =    -333.15636459 Ry
     estimated scf accuracy    <       0.05966965 Ry

     iteration #  5     ecut=    30.00 Ry     beta= 0.70
     Davidson diagonalization with overlap
     ethr =  1.36E-04,  avg # of iterations =  4.8

     total cpu time spent up to now is        4.1 secs

     total energy              =    -333.18313119 Ry
     estimated scf accuracy    <       0.02215320 Ry

     iteration #  6     ecut=    30.00 Ry     beta= 0.70
     Davidson diagonalization with overlap
     ethr =  5.03E-05,  avg # of iterations =  2.3

     total cpu time spent up to now is        4.4 secs

     total energy              =    -333.18221384 Ry
     estimated scf accuracy    <       0.00716048 Ry

     iteration #  7     ecut=    30.00 Ry     beta= 0.70
     Davidson diagonalization with overlap
     ethr =  1.63E-05,  avg # of iterations =  4.2

     total cpu time spent up to now is        4.9 secs

     total energy              =    -333.18441286 Ry
     estimated scf accuracy    <       0.00024715 Ry

     iteration #  8     ecut=    30.00 Ry     beta= 0.70
     Davidson diagonalization with overlap
     ethr =  5.62E-07,  avg # of iterations =  4.5

     total cpu time spent up to now is        5.3 secs

     total energy              =    -333.18440094 Ry
     estimated scf accuracy    <       0.00040357 Ry

     iteration #  9     ecut=    30.00 Ry     beta= 0.70
     Davidson diagonalization with overlap
     ethr =  5.62E-07,  avg # of iterations =  2.0

     total cpu time spent up to now is        5.7 secs

     total energy              =    -333.18435274 Ry
     estimated scf accuracy    <       0.00021193 Ry

     iteration # 10     ecut=    30.00 Ry     beta= 0.70
     Davidson diagonalization with overlap
     ethr =  4.82E-07,  avg # of iterations =  4.3

     total cpu time spent up to now is        6.2 secs

     total energy              =    -333.18438758 Ry
     estimated scf accuracy    <       0.00000473 Ry

     iteration # 11     ecut=    30.00 Ry     beta= 0.70
     Davidson diagonalization with overlap
     ethr =  1.07E-08,  avg # of iterations =  5.8

     total cpu time spent up to now is        6.7 secs

     total energy              =    -333.18439163 Ry
     estimated scf accuracy    <       0.00000592 Ry

     iteration # 12     ecut=    30.00 Ry     beta= 0.70
     Davidson diagonalization with overlap
     ethr =  1.07E-08,  avg # of iterations =  1.0

     total cpu time spent up to now is        7.2 secs

     total energy              =    -333.18439077 Ry
     estimated scf accuracy    <       0.00000346 Ry

     iteration # 13     ecut=    30.00 Ry     beta= 0.70
     Davidson diagonalization with overlap
     ethr =  7.86E-09,  avg # of iterations =  2.8

     total cpu time spent up to now is        7.6 secs

     total energy              =    -333.18439156 Ry
     estimated scf accuracy    <       0.00000021 Ry

     iteration # 14     ecut=    30.00 Ry     beta= 0.70
     Davidson diagonalization with overlap
     ethr =  4.76E-10,  avg # of iterations =  6.3

     total cpu time spent up to now is        8.1 secs

     total energy              =    -333.18439170 Ry
     estimated scf accuracy    <       0.00000014 Ry

     iteration # 15     ecut=    30.00 Ry     beta= 0.70
     Davidson diagonalization with overlap
     ethr =  3.25E-10,  avg # of iterations =  2.0

     total cpu time spent up to now is        8.5 secs

     End of self-consistent calculation

          k = 0.1250 0.1250 0.1250 (  1090 PWs)   bands (ev):

   -44.6494 -21.2627 -21.2570 -21.2561  -6.3268  -5.2539  -5.2468  -3.9530
    -3.9524  -3.9388  -3.7712  -3.7704   4.6683   7.3133   7.3166   8.0942
     9.1436   9.1525   9.9024   9.9435   9.9886  10.1335

          k = 0.1250 0.1250 0.3750 (  1095 PWs)   bands (ev):

   -44.6482 -21.3205 -21.2549 -21.2540  -5.9137  -5.1261  -5.0823  -4.0146
    -3.9481  -3.9355  -3.8690  -3.7399   3.9307   6.8444   7.3381   7.8618
     8.4665   8.7458   9.4040   9.9556  10.1309  10.8853

          k = 0.1250 0.3750 0.3750 (  1087 PWs)   bands (ev):

   -44.6469 -21.3170 -21.3108 -21.2523  -5.6980  -5.0003  -4.9305  -3.9879
    -3.9440  -3.8901  -3.8006  -3.6493   3.5615   6.7944   6.8707   7.1960
     7.5053   8.6908   9.4613   9.4946  10.0566  10.7373

          k = 0.3750 0.3750 0.3750 (  1082 PWs)   bands (ev):

   -44.6456 -21.3145 -21.3084 -21.3082  -5.2976  -5.1275  -5.1219  -3.8992
    -3.8983  -3.6089  -3.5428  -3.5402   4.1810   5.9518   5.9575   6.7224
     7.0427   7.0469   7.9961  10.6905  10.6987  10.7706

          k = 0.3750-0.1250 0.1250 (  1095 PWs)   bands (ev):

   -44.6482 -21.3144 -21.2605 -21.2544  -5.9182  -5.1320  -5.0741  -4.0142
    -3.9477  -3.9356  -3.8699  -3.7393   3.9335   6.8507   7.3506   7.8611
     8.4612   8.7613   9.3916   9.9568  10.1160  10.8780

          k = 0.3750-0.3750 0.1250 (  1087 PWs)   bands (ev):

   -44.6469 -21.3113 -21.3104 -21.2583  -5.7069  -4.9963  -4.9258  -3.9871
    -3.9438  -3.8892  -3.8002  -3.6524   3.5640   6.8231   6.8506   7.1924
     7.5011   8.6870   9.4684   9.4961  10.0536  10.7462

     highest occupied level (ev):    10.8853

!    total energy              =    -333.18439127 Ry
     estimated scf accuracy    <       0.00000006 Ry

     The total energy is the sum of the following terms:
     one-electron contribution =     -76.46326301 Ry
     hartree contribution      =      66.22339024 Ry
     xc contribution           =     -49.64913525 Ry
     ewald contribution        =    -273.29538325 Ry

     convergence has been achieved in  15 iterations

     Forces acting on atoms (cartesian axes, Ry/au):

     atom    1 type  2   force =     0.00000000    0.00000000    0.00432883
     atom    2 type  3   force =     0.00000000    0.00000000   -0.00547923
     atom    3 type  1   force =     0.00000000    0.00000000   -0.00018574
     atom    4 type  1   force =     0.00000000    0.00000000   -0.00018574
     atom    5 type  1   force =     0.00000000    0.00000000    0.00152187

     Total force =     0.001544     Total SCF correction =     0.000038


     Computing stress (Cartesian axis) and pressure

          total   stress  (Ry/bohr**3)                   (kbar)     P=      -14.58
  -0.00010407   0.00000000   0.00000000          -15.31        0.00        0.00
   0.00000000  -0.00010407   0.00000000            0.00      -15.31        0.00
   0.00000000   0.00000000  -0.00008909            0.00        0.00      -13.11


     BFGS Geometry Optimization
     Energy error            =      2.4E-06 Ry
     Gradient error          =      1.5E-03 Ry/Bohr

     number of scf cycles    =   1
     number of bfgs steps    =   0

     energy             new  =    -333.1843912724 Ry

     new trust radius        =       0.0015218738 bohr
     new conv_thr            =       0.0000001000 Ry


ATOMIC_POSITIONS (angstrom)
Pb               0.0000000000        0.0000000000        0.0000000000    0   0   0
Ti               1.9375000000        1.9375000000        1.9762500000    0   0   0
O                0.0000000000        1.9375000000        1.9374017122
O                1.9375000000        0.0000000000        1.9374017122
O                1.9375000000        1.9375000000        0.0008053409


     Message from routine punch:
     Nothing written, as per user request (disk_io='none')
     NEW-OLD atomic charge density approx. for the potential

     total cpu time spent up to now is       10.0 secs

     Self-consistent Calculation

     iteration #  1     ecut=    30.00 Ry     beta= 0.70
     Davidson diagonalization with overlap
     ethr =  1.00E-06,  avg # of iterations =  2.0

     Threshold (ethr) on eigenvalues was too large:
     Diagonalizing with lowered threshold

     Davidson diagonalization with overlap
     ethr =  8.79E-10,  avg # of iterations =  6.5

     total cpu time spent up to now is       10.9 secs

     total energy              =    -333.18439275 Ry
     estimated scf accuracy    <       0.00000121 Ry

     iteration #  2     ecut=    30.00 Ry     beta= 0.70
     Davidson diagonalization with overlap
     ethr =  2.74E-09,  avg # of iterations =  6.0

     total cpu time spent up to now is       11.4 secs

     total energy              =    -333.18439263 Ry
     estimated scf accuracy    <       0.00000424 Ry

     iteration #  3     ecut=    30.00 Ry     beta= 0.70
     Davidson diagonalization with overlap
     ethr =  2.74E-09,  avg # of iterations =  4.5

     total cpu time spent up to now is       11.8 secs

     End of self-consistent calculation

          k = 0.1250 0.1250 0.1250 (  1090 PWs)   bands (ev):

   -44.6507 -21.2637 -21.2582 -21.2573  -6.3266  -5.2535  -5.2467  -3.9529
    -3.9524  -3.9387  -3.7711  -3.7704   4.6685   7.3135   7.3167   8.0942
     9.1441   9.1528   9.9028   9.9445   9.9887  10.1335

          k = 0.1250 0.1250 0.3750 (  1095 PWs)   bands (ev):

   -44.6495 -21.3215 -21.2561 -21.2552  -5.9135  -5.1259  -5.0819  -4.0145
    -3.9480  -3.9354  -3.8690  -3.7398   3.9309   6.8444   7.3384   7.8618
     8.4667   8.7463   9.4042   9.9559  10.1311  10.8855

          k = 0.1250 0.3750 0.3750 (  1087 PWs)   bands (ev):

   -44.6482 -21.3180 -21.3120 -21.2535  -5.6979  -5.0000  -4.9302  -3.9878
    -3.9439  -3.8900  -3.8005  -3.6492   3.5617   6.7948   6.8704   7.1962
     7.5054   8.6909   9.4617   9.4949  10.0569  10.7378

          k = 0.3750 0.3750 0.3750 (  1082 PWs)   bands (ev):

   -44.6469 -21.3154 -21.3097 -21.3094  -5.2974  -5.1271  -5.1218  -3.8991
    -3.8983  -3.6088  -3.5426  -3.5401   4.1811   5.9521   5.9576   6.7225
     7.0428   7.0467   7.9963  10.6911  10.6991  10.7711

          k = 0.3750-0.1250 0.1250 (  1095 PWs)   bands (ev):

   -44.6495 -21.3157 -21.2615 -21.2556  -5.9179  -5.1316  -5.0739  -4.0142
    -3.9476  -3.9355  -3.8698  -3.7392   3.9336   6.8506   7.3508   7.8612
     8.4614   8.7615   9.3922   9.9572  10.1165  10.8783

          k = 0.3750-0.3750 0.1250 (  1087 PWs)   bands (ev):

   -44.6482 -21.3125 -21.3116 -21.2593  -5.7065  -4.9961  -4.9257  -3.9871
    -3.9437  -3.8892  -3.8002  -3.6522   3.5641   6.8232   6.8506   7.1928
     7.5015   8.6871   9.4686   9.4963  10.0538  10.7465

     highest occupied level (ev):    10.8855

!    total energy              =    -333.18439334 Ry
     estimated scf accuracy    <       0.00000002 Ry

     The total energy is the sum of the following terms:
     one-electron contribution =     -76.46094397 Ry
     hartree contribution      =      66.22235187 Ry
     xc contribution           =     -49.64892507 Ry
     ewald contribution        =    -273.29687616 Ry

     convergence has been achieved in   3 iterations

     Forces acting on atoms (cartesian axes, Ry/au):

     atom    1 type  2   force =     0.00000000    0.00000000    0.00457257
     atom    2 type  3   force =     0.00000000    0.00000000   -0.00551778
     atom    3 type  1   force =     0.00000000    0.00000000   -0.00008574
     atom    4 type  1   force =     0.00000000    0.00000000   -0.00008574
     atom    5 type  1   force =     0.00000000    0.00000000    0.00111669

     Total force =     0.001123     Total SCF correction =     0.000399
     SCF correction compared to forces is large: reduce conv_thr to get better values


     Computing stress (Cartesian axis) and pressure

          total   stress  (Ry/bohr**3)                   (kbar)     P=      -14.16
  -0.00010103   0.00000000   0.00000000          -14.86        0.00        0.00
   0.00000000  -0.00010103   0.00000000            0.00      -14.86        0.00
   0.00000000   0.00000000  -0.00008664            0.00        0.00      -12.75

     Energy error            =      2.1E-06 Ry
     Gradient error          =      1.1E-03 Ry/Bohr

     number of scf cycles    =   2
     number of bfgs steps    =   1

     energy             old  =    -333.1843912724 Ry
     energy             new  =    -333.1843933426 Ry

     CASE: energy            _new < energy            _old

     new trust radius        =       0.0016740612 bohr
     new conv_thr            =       0.0000000010 Ry


ATOMIC_POSITIONS (angstrom)
Pb               0.0000000000        0.0000000000        0.0000000000    0   0   0
Ti               1.9375000000        1.9375000000        1.9762500000    0   0   0
O                0.0000000000        1.9375000000        1.9373332859
O                1.9375000000        0.0000000000        1.9373332859
O                1.9375000000        1.9375000000        0.0016912160


     Message from routine punch:
     Nothing written, as per user request (disk_io='none')
     NEW-OLD atomic charge density approx. for the potential

     total cpu time spent up to now is       13.3 secs

     Self-consistent Calculation

     iteration #  1     ecut=    30.00 Ry     beta= 0.70
     Davidson diagonalization with overlap
     ethr =  1.00E-06,  avg # of iterations =  2.0

     Threshold (ethr) on eigenvalues was too large:
     Diagonalizing with lowered threshold

     Davidson diagonalization with overlap
     ethr =  7.52E-10,  avg # of iterations =  6.3

     total cpu time spent up to now is       14.0 secs

     total energy              =    -333.18439462 Ry
     estimated scf accuracy    <       0.00000065 Ry

     iteration #  2     ecut=    30.00 Ry     beta= 0.70
     Davidson diagonalization with overlap
     ethr =  1.47E-09,  avg # of iterations =  4.2

     total cpu time spent up to now is       14.4 secs

     total energy              =    -333.18439471 Ry
     estimated scf accuracy    <       0.00000034 Ry

     iteration #  3     ecut=    30.00 Ry     beta= 0.70
     Davidson diagonalization with overlap
     ethr =  7.64E-10,  avg # of iterations =  4.3

     total cpu time spent up to now is       14.9 secs

     total energy              =    -333.18439479 Ry
     estimated scf accuracy    <       0.00000012 Ry

     iteration #  4     ecut=    30.00 Ry     beta= 0.70
     Davidson diagonalization with overlap
     ethr =  2.78E-10,  avg # of iterations =  4.0

     total cpu time spent up to now is       15.5 secs

     total energy              =    -333.18439481 Ry
     estimated scf accuracy    <          1.5E-09 Ry

     iteration #  5     ecut=    30.00 Ry     beta= 0.70
     Davidson diagonalization with overlap
     ethr =  3.38E-12,  avg # of iterations =  5.8

     total cpu time spent up to now is       16.0 secs

     total energy              =    -333.18439481 Ry
     estimated scf accuracy    <          1.9E-09 Ry

     iteration #  6     ecut=    30.00 Ry     beta= 0.70
     Davidson diagonalization with overlap
     ethr =  3.38E-12,  avg # of iterations =  4.5

     total cpu time spent up to now is       16.5 secs

     End of self-consistent calculation

          k = 0.1250 0.1250 0.1250 (  1090 PWs)   bands (ev):

   -44.6505 -21.2633 -21.2581 -21.2572  -6.3268  -5.2535  -5.2469  -3.9529
    -3.9523  -3.9387  -3.7710  -3.7703   4.6685   7.3134   7.3165   8.0941
     9.1443   9.1529   9.9027   9.9452   9.9885  10.1332

          k = 0.1250 0.1250 0.3750 (  1095 PWs)   bands (ev):

   -44.6493 -21.3211 -21.2560 -21.2551  -5.9138  -5.1262  -5.0818  -4.0144
    -3.9480  -3.9354  -3.8689  -3.7398   3.9311   6.8444   7.3385   7.8615
     8.4667   8.7467   9.4041   9.9558  10.1308  10.8854

          k = 0.1250 0.3750 0.3750 (  1087 PWs)   bands (ev):

   -44.6480 -21.3176 -21.3119 -21.2534  -5.6981  -5.0001  -4.9303  -3.9877
    -3.9438  -3.8899  -3.8005  -3.6492   3.5617   6.7952   6.8700   7.1960
     7.5053   8.6907   9.4618   9.4949  10.0569  10.7378

          k = 0.3750 0.3750 0.3750 (  1082 PWs)   bands (ev):

   -44.6468 -21.3150 -21.3095 -21.3093  -5.2975  -5.1271  -5.1220  -3.8990
    -3.8982  -3.6088  -3.5425  -3.5402   4.1812   5.9522   5.9575   6.7223
     7.0428   7.0466   7.9964  10.6912  10.6989  10.7710

          k = 0.3750-0.1250 0.1250 (  1095 PWs)   bands (ev):

   -44.6493 -21.3156 -21.2611 -21.2555  -5.9180  -5.1317  -5.0741  -4.0141
    -3.9476  -3.9355  -3.8698  -3.7391   3.9337   6.8505   7.3508   7.8611
     8.4613   8.7614   9.3924   9.9571  10.1166  10.8784

          k = 0.3750-0.3750 0.1250 (  1087 PWs)   bands (ev):

   -44.6480 -21.3124 -21.3115 -21.2589  -5.7065  -4.9963  -4.9259  -3.9870
    -3.9437  -3.8891  -3.8001  -3.6521   3.5641   6.8230   6.8504   7.1929
     7.5018   8.6871   9.4686   9.4962  10.0538  10.7462

     highest occupied level (ev):    10.8854

!    total energy              =    -333.18439481 Ry
     estimated scf accuracy    <          1.3E-10 Ry

     The total energy is the sum of the following terms:
     one-electron contribution =     -76.45788449 Ry
     hartree contribution      =      66.22079049 Ry
     xc contribution           =     -49.64886438 Ry
     ewald contribution        =    -273.29843644 Ry

     convergence has been achieved in   6 iterations

     Forces acting on atoms (cartesian axes, Ry/au):

     atom    1 type  2   force =     0.00000000    0.00000000    0.00440846
     atom    2 type  3   force =     0.00000000    0.00000000   -0.00538449
     atom    3 type  1   force =     0.00000000    0.00000000    0.00015764
     atom    4 type  1   force =     0.00000000    0.00000000    0.00015764
     atom    5 type  1   force =     0.00000000    0.00000000    0.00066075

     Total force =     0.000697     Total SCF correction =     0.000004


     Computing stress (Cartesian axis) and pressure

          total   stress  (Ry/bohr**3)                   (kbar)     P=      -14.33
  -0.00010191   0.00000000   0.00000000          -14.99        0.00        0.00
   0.00000000  -0.00010191   0.00000000            0.00      -14.99        0.00
   0.00000000   0.00000000  -0.00008833            0.00        0.00      -12.99

     Energy error            =      1.5E-06 Ry
     Gradient error          =      6.6E-04 Ry/Bohr

     bfgs converged in   3 scf cycles and   2 bfgs steps
     (criteria: energy <  1.0E-04 Ry, force <  1.0E-03 Ry/Bohr)

     End of BFGS Geometry Optimization

     Final energy             =    -333.1843948129 Ry

     File /home/bond/Work/Lab4/Problem2/PbTiO3_a_3.875_ecut_30_nk_4_displ_0.01/pwscf.bfgs deleted, as requested
Begin final coordinates

ATOMIC_POSITIONS (angstrom)
Pb               0.0000000000        0.0000000000        0.0000000000    0   0   0
Ti               1.9375000000        1.9375000000        1.9762500000    0   0   0
O                0.0000000000        1.9375000000        1.9373332859
O                1.9375000000        0.0000000000        1.9373332859
O                1.9375000000        1.9375000000        0.0016912160
End final coordinates


     Message from routine punch:
     Nothing written, as per user request (disk_io='none')

     init_run     :      1.20s CPU      1.32s WALL (       1 calls)
     electrons    :     10.00s CPU     11.67s WALL (       3 calls)
     update_pot   :      0.01s CPU      0.01s WALL (       2 calls)
     forces       :      0.40s CPU      0.49s WALL (       3 calls)
     stress       :      3.49s CPU      3.68s WALL (       3 calls)

     Called by init_run:
     wfcinit      :      0.09s CPU      0.09s WALL (       1 calls)
     potinit      :      0.09s CPU      0.09s WALL (       1 calls)
     hinit0       :      0.82s CPU      0.86s WALL (       1 calls)

     Called by electrons:
     c_bands      :      4.47s CPU      4.86s WALL (      26 calls)
     sum_band     :      3.22s CPU      3.92s WALL (      26 calls)
     v_of_rho     :      0.08s CPU      0.09s WALL (      27 calls)
     newd         :      2.44s CPU      3.12s WALL (      27 calls)
     mix_rho      :      0.05s CPU      0.05s WALL (      26 calls)

     Called by c_bands:
     init_us_2    :      0.14s CPU      0.16s WALL (     354 calls)
     cegterg      :      4.18s CPU      4.55s WALL (     156 calls)

     Called by *egterg:
     cdiaghg      :      0.53s CPU      0.56s WALL (     769 calls)
     h_psi        :      2.93s CPU      3.21s WALL (     799 calls)
     s_psi        :      0.12s CPU      0.13s WALL (     799 calls)
     g_psi        :      0.02s CPU      0.02s WALL (     637 calls)

     Called by h_psi:
     h_psi:calbec :      0.22s CPU      0.24s WALL (     799 calls)
     vloc_psi     :      2.54s CPU      2.80s WALL (     799 calls)
     add_vuspsi   :      0.14s CPU      0.15s WALL (     799 calls)

     General routines
     calbec       :      0.37s CPU      0.40s WALL (    1261 calls)
     fft          :      0.36s CPU      0.37s WALL (     175 calls)
     ffts         :      0.05s CPU      0.05s WALL (      53 calls)
     fftw         :      2.34s CPU      2.59s WALL (   23926 calls)
     interpolate  :      0.07s CPU      0.07s WALL (      27 calls)

     Parallel routines

     PWSCF        :     15.80s CPU     17.96s WALL


   This run was terminated on:  13: 0:26  21Oct2025            

=------------------------------------------------------------------------------=
   JOB DONE.
=------------------------------------------------------------------------------=
