LAMMPS (22 Jul 2025 - Update 1)
Reading data file ...
  orthogonal box = (0 0 0) to (106.12303 106.12303 106.12303)
  1 by 1 by 1 MPI processor grid
  reading atoms ...
  70303 atoms
  read_data CPU = 0.203 seconds
Reading eam/alloy potential file /home/bond/Software/LAMMPS/lammps-22Jul2025/potentials/Al_zhou.eam.alloy with DATE: 2007-10-12
WARNING: No fixes with time integration, atoms won't move
For more information see https://docs.lammps.org/err0028 (../verlet.cpp:60)
Neighbor list info ...
  update: every = 1 steps, delay = 0 steps, check = yes
  max neighbors/atom: 2000, page size: 100000
  master list distance cutoff = 12.1025
  ghost atom cutoff = 12.1025
  binsize = 6.05125, bins = 18 18 18
  1 neighbor lists, perpetual/occasional/extra = 1 0 0
  (1) pair eam/alloy, perpetual
      attributes: half, newton on
      pair build: half/bin/atomonly/newton
      stencil: half/bin/3d
      bin: standard
Setting up Verlet run ...
  Unit style    : metal
  Current step  : 0
  Time step     : 0.001
Per MPI rank memory allocation (min/avg/max) = 83.28 | 83.28 | 83.28 Mbytes
   Step         PotEng           Lx             Ly             Lz           Press           Pxx            Pyy            Pzz      
         0  -251683.84      106.12303      106.12303      106.12303     -4.0527119     -4.0527135     -4.0527088     -4.0527135    
Loop time of 3.267e-06 on 1 procs for 0 steps with 70303 atoms

153.0% CPU use with 1 MPI tasks x no OpenMP threads

MPI task timing breakdown:
Section |  min time  |  avg time  |  max time  |%varavg| %total
---------------------------------------------------------------
Pair    | 0          | 0          | 0          |   0.0 |  0.00
Neigh   | 0          | 0          | 0          |   0.0 |  0.00
Comm    | 0          | 0          | 0          |   0.0 |  0.00
Output  | 0          | 0          | 0          |   0.0 |  0.00
Modify  | 0          | 0          | 0          |   0.0 |  0.00
Other   |            | 3.267e-06  |            |       |100.00

Nlocal:          70303 ave       70303 max       70303 min
Histogram: 1 0 0 0 0 0 0 0 0 0
Nghost:          54712 ave       54712 max       54712 min
Histogram: 1 0 0 0 0 0 0 0 0 0
Neighs:    1.50446e+07 ave 1.50446e+07 max 1.50446e+07 min
Histogram: 1 0 0 0 0 0 0 0 0 0

Total # of neighbors = 15044628
Ave neighs/atom = 213.99696
Neighbor list builds = 0
Dangerous builds = 0
Setting up cg style minimization ...
  Unit style    : metal
  Current step  : 0
WARNING: Energy due to 1 extra global DOFs will be included in minimizer energies
 (../min.cpp:222)
Per MPI rank memory allocation (min/avg/max) = 92.28 | 92.28 | 92.28 Mbytes
   Step         PotEng           Lx             Ly             Lz           Press           Pxx            Pyy            Pzz      
         0  -251683.84      106.12303      106.12303      106.12303     -4.0527119     -4.0527135     -4.0527088     -4.0527135    
[mpiexec@lucas275instance] Sending Ctrl-C to processes as requested
[mpiexec@lucas275instance] Press Ctrl-C again to force abort
