LAMMPS (22 Jul 2025 - Update 1)
# ---------- 1. Initialize simulation ---------------------
units metal
atom_style atomic
dimension  3
boundary   p p p
read_data /home/bond/Work/Lab1/Vacancy/LJ/relax/14/lammps.data
Reading data file ...
  orthogonal box = (0 0 0) to (57.715322 57.715322 57.715322)
  1 by 1 by 1 MPI processor grid
  reading atoms ...
  10975 atoms
  read_data CPU = 0.031 seconds

# ---------- 2. Specify interatomic potential ---------------------

pair_style lj/cut 4.5
pair_coeff 1 1 0.392 2.620 4.5

# ---------- 3. Run single point calculation  ---------------------
thermo_style custom step pe lx ly lz press pxx pyy pzz
run 0
WARNING: No fixes with time integration, atoms won't move
For more information see https://docs.lammps.org/err0028 (../verlet.cpp:60)
Generated 0 of 0 mixed pair_coeff terms from geometric mixing rule
Neighbor list info ...
  update: every = 1 steps, delay = 0 steps, check = yes
  max neighbors/atom: 2000, page size: 100000
  master list distance cutoff = 6.5
  ghost atom cutoff = 6.5
  binsize = 3.25, bins = 18 18 18
  1 neighbor lists, perpetual/occasional/extra = 1 0 0
  (1) pair lj/cut, perpetual
      attributes: half, newton on
      pair build: half/bin/atomonly/newton
      stencil: half/bin/3d
      bin: standard
Per MPI rank memory allocation (min/avg/max) = 7.009 | 7.009 | 7.009 Mbytes
   Step         PotEng           Lx             Ly             Lz           Press           Pxx            Pyy            Pzz      
         0  -28912.151      57.715322      57.715322      57.715322     -0.00051436521 -0.00056072006 -0.00042165541 -0.00056072015
Loop time of 1.993e-06 on 1 procs for 0 steps with 10975 atoms

200.7% CPU use with 1 MPI tasks x no OpenMP threads

MPI task timing breakdown:
Section |  min time  |  avg time  |  max time  |%varavg| %total
---------------------------------------------------------------
Pair    | 0          | 0          | 0          |   0.0 |  0.00
Neigh   | 0          | 0          | 0          |   0.0 |  0.00
Comm    | 0          | 0          | 0          |   0.0 |  0.00
Output  | 0          | 0          | 0          |   0.0 |  0.00
Modify  | 0          | 0          | 0          |   0.0 |  0.00
Other   |            | 1.993e-06  |            |       |100.00

Nlocal:          10975 ave       10975 max       10975 min
Histogram: 1 0 0 0 0 0 0 0 0 0
Nghost:          10454 ave       10454 max       10454 min
Histogram: 1 0 0 0 0 0 0 0 0 0
Neighs:         296298 ave      296298 max      296298 min
Histogram: 1 0 0 0 0 0 0 0 0 0

Total # of neighbors = 296298
Ave neighs/atom = 26.99754
Neighbor list builds = 0
Dangerous builds = 0
# -- include optimization of the unit cell parameter
fix 1 all box/relax iso 0.0 vmax 0.001

# -- enable optimization of atomic positions (and the cell)
min_style cg
minimize 1e-12 1e-12 1000 10000
Generated 0 of 0 mixed pair_coeff terms from geometric mixing rule
WARNING: Energy due to 1 extra global DOFs will be included in minimizer energies
 (../min.cpp:222)
Per MPI rank memory allocation (min/avg/max) = 9.259 | 9.259 | 9.259 Mbytes
   Step         PotEng           Lx             Ly             Lz           Press           Pxx            Pyy            Pzz      
         0  -28912.151      57.715322      57.715322      57.715322     -0.00051436521 -0.00056072006 -0.00042165541 -0.00056072015
         6  -28912.158      57.715295      57.715295      57.715295      0.63925082     0.63923095     0.63929056     0.63923095   
Loop time of 0.0592303 on 1 procs for 6 steps with 10975 atoms

100.0% CPU use with 1 MPI tasks x no OpenMP threads

Minimization stats:
  Stopping criterion = energy tolerance
  Energy initial, next-to-last, final = 
     -28912.1514406406  -28912.1581911383  -28912.1581911646
  Force two-norm initial, final = 0.45235654 0.29078557
  Force max component initial, final = 0.13063076 0.23012042
  Final line search alpha, max atom move = 0.0071974613 0.0016562828
  Iterations, force evaluations = 6 12

MPI task timing breakdown:
Section |  min time  |  avg time  |  max time  |%varavg| %total
---------------------------------------------------------------
Pair    | 0.049787   | 0.049787   | 0.049787   |   0.0 | 84.06
Neigh   | 0          | 0          | 0          |   0.0 |  0.00
Comm    | 0.00095091 | 0.00095091 | 0.00095091 |   0.0 |  1.61
Output  | 0          | 0          | 0          |   0.0 |  0.00
Modify  | 0          | 0          | 0          |   0.0 |  0.00
Other   |            | 0.008492   |            |       | 14.34

Nlocal:          10975 ave       10975 max       10975 min
Histogram: 1 0 0 0 0 0 0 0 0 0
Nghost:          10454 ave       10454 max       10454 min
Histogram: 1 0 0 0 0 0 0 0 0 0
Neighs:         296298 ave      296298 max      296298 min
Histogram: 1 0 0 0 0 0 0 0 0 0

Total # of neighbors = 296298
Ave neighs/atom = 26.99754
Neighbor list builds = 0
Dangerous builds = 0
# ---- 4. Define and print useful variables -------------
variable natoms equal "count(all)"
variable totenergy equal "pe"
variable length equal "lx"

print "Total energy (eV) = ${totenergy}"
Total energy (eV) = -28912.1581911646
print "Number of atoms = ${natoms}"
Number of atoms = 10975
print "Lattice constant (Angstoms) = ${length}"
Lattice constant (Angstoms) = 57.7152949866381
Total wall time: 0:00:00
