Header of the LAMMPS data file 

48667 atoms 
1 atom types

0.0 93.8780628118598  xlo xhi
0.0 93.8780628118598  ylo yhi
0.0 93.8780628118598  zlo zhi

Masses 

1  26.9815385

Atoms # atomic 

1 1 0.00000 0.00000 0.00000 
2 1 0.00000 2.04083 2.04083 
3 1 2.04083 2.04083 0.00000 
4 1 0.00000 0.00000 4.08165 
5 1 0.00000 2.04083 6.12248 
6 1 2.04083 0.00000 6.12248 
7 1 2.04083 2.04083 4.08165 
8 1 0.00000 0.00000 8.16331 
9 1 0.00000 2.04083 10.20414 
10 1 2.04083 0.00000 10.20414 
11 1 2.04083 2.04083 8.16331 
12 1 0.00000 0.00000 12.24496 
13 1 0.00000 2.04083 14.28579 
14 1 2.04083 0.00000 14.28579 
15 1 2.04083 2.04083 12.24496 
16 1 0.00000 0.00000 16.32662 
17 1 0.00000 2.04083 18.36745 
18 1 2.04083 0.00000 18.36745 
19 1 2.04083 2.04083 16.32662 
20 1 0.00000 0.00000 20.40827 
21 1 0.00000 2.04083 22.44910 
22 1 2.04083 0.00000 22.44910 
23 1 2.04083 2.04083 20.40827 
24 1 0.00000 0.00000 24.48993 
25 1 0.00000 2.04083 26.53076 
26 1 2.04083 0.00000 26.53076 
27 1 2.04083 2.04083 24.48993 
28 1 0.00000 0.00000 28.57158 
29 1 0.00000 2.04083 30.61241 
30 1 2.04083 0.00000 30.61241 
31 1 2.04083 2.04083 28.57158 
32 1 0.00000 0.00000 32.65324 
33 1 0.00000 2.04083 34.69407 
34 1 2.04083 0.00000 34.69407 
35 1 2.04083 2.04083 32.65324 
36 1 0.00000 0.00000 36.73489 
37 1 0.00000 2.04083 38.77572 
38 1 2.04083 0.00000 38.77572 
39 1 2.04083 2.04083 36.73489 
40 1 0.00000 0.00000 40.81655 
41 1 0.00000 2.04083 42.85738 
42 1 2.04083 0.00000 42.85738 
43 1 2.04083 2.04083 40.81655 
44 1 0.00000 0.00000 44.89820 
45 1 0.00000 2.04083 46.93903 
46 1 2.04083 0.00000 46.93903 
47 1 2.04083 2.04083 44.89820 
48 1 0.00000 0.00000 48.97986 
49 1 0.00000 2.04083 51.02069 
50 1 2.04083 0.00000 51.02069 
51 1 2.04083 2.04083 48.97986 
52 1 0.00000 0.00000 53.06151 
53 1 0.00000 2.04083 55.10234 
54 1 2.04083 0.00000 55.10234 
55 1 2.04083 2.04083 53.06151 
56 1 0.00000 0.00000 57.14317 
57 1 0.00000 2.04083 59.18400 
58 1 2.04083 0.00000 59.18400 
59 1 2.04083 2.04083 57.14317 
60 1 0.00000 0.00000 61.22482 
61 1 0.00000 2.04083 63.26565 
62 1 2.04083 0.00000 63.26565 
63 1 2.04083 2.04083 61.22482 
64 1 0.00000 0.00000 65.30648 
65 1 0.00000 2.04083 67.34731 
66 1 2.04083 0.00000 67.34731 
67 1 2.04083 2.04083 65.30648 
68 1 0.00000 0.00000 69.38813 
69 1 0.00000 2.04083 71.42896 
70 1 2.04083 0.00000 71.42896 
71 1 2.04083 2.04083 69.38813 
72 1 0.00000 0.00000 73.46979 
73 1 0.00000 2.04083 75.51062 
74 1 2.04083 0.00000 75.51062 
75 1 2.04083 2.04083 73.46979 
76 1 0.00000 0.00000 77.55144 
77 1 0.00000 2.04083 79.59227 
78 1 2.04083 0.00000 79.59227 
79 1 2.04083 2.04083 77.55144 
80 1 0.00000 0.00000 81.63310 
81 1 0.00000 2.04083 83.67393 
82 1 2.04083 0.00000 83.67393 
83 1 2.04083 2.04083 81.63310 
84 1 0.00000 0.00000 85.71475 
85 1 0.00000 2.04083 87.75558 
86 1 2.04083 0.00000 87.75558 
87 1 2.04083 2.04083 85.71475 
88 1 0.00000 0.00000 89.79641 
89 1 0.00000 2.04083 91.83724 
90 1 2.04083 0.00000 91.83724 
91 1 2.04083 2.04083 89.79641 
92 1 0.00000 4.08165 0.00000 
93 1 0.00000 6.12248 2.04083 
94 1 2.04083 4.08165 2.04083 
95 1 2.04083 6.12248 0.00000 
96 1 0.00000 4.08165 4.08165 
97 1 0.00000 6.12248 6.12248 
98 1 2.04083 4.08165 6.12248 
99 1 2.04083 6.12248 4.08165 
100 1 0.00000 4.08165 8.16331 
101 1 0.00000 6.12248 10.20414 
102 1 2.04083 4.08165 10.20414 
103 1 2.04083 6.12248 8.16331 
104 1 0.00000 4.08165 12.24496 
105 1 0.00000 6.12248 14.28579 
106 1 2.04083 4.08165 14.28579 
107 1 2.04083 6.12248 12.24496 
108 1 0.00000 4.08165 16.32662 
109 1 0.00000 6.12248 18.36745 
110 1 2.04083 4.08165 18.36745 
111 1 2.04083 6.12248 16.32662 
112 1 0.00000 4.08165 20.40827 
113 1 0.00000 6.12248 22.44910 
114 1 2.04083 4.08165 22.44910 
115 1 2.04083 6.12248 20.40827 
116 1 0.00000 4.08165 24.48993 
117 1 0.00000 6.12248 26.53076 
118 1 2.04083 4.08165 26.53076 
119 1 2.04083 6.12248 24.48993 
120 1 0.00000 4.08165 28.57158 
121 1 0.00000 6.12248 30.61241 
122 1 2.04083 4.08165 30.61241 
123 1 2.04083 6.12248 28.57158 
124 1 0.00000 4.08165 32.65324 
125 1 0.00000 6.12248 34.69407 
126 1 2.04083 4.08165 34.69407 
127 1 2.04083 6.12248 32.65324 
128 1 0.00000 4.08165 36.73489 
129 1 0.00000 6.12248 38.77572 
130 1 2.04083 4.08165 38.77572 
131 1 2.04083 6.12248 36.73489 
132 1 0.00000 4.08165 40.81655 
133 1 0.00000 6.12248 42.85738 
134 1 2.04083 4.08165 42.85738 
135 1 2.04083 6.12248 40.81655 
136 1 0.00000 4.08165 44.89820 
137 1 0.00000 6.12248 46.93903 
138 1 2.04083 4.08165 46.93903 
139 1 2.04083 6.12248 44.89820 
140 1 0.00000 4.08165 48.97986 
141 1 0.00000 6.12248 51.02069 
142 1 2.04083 4.08165 51.02069 
143 1 2.04083 6.12248 48.97986 
144 1 0.00000 4.08165 53.06151 
145 1 0.00000 6.12248 55.10234 
146 1 2.04083 4.08165 55.10234 
147 1 2.04083 6.12248 53.06151 
148 1 0.00000 4.08165 57.14317 
149 1 0.00000 6.12248 59.18400 
150 1 2.04083 4.08165 59.18400 
151 1 2.04083 6.12248 57.14317 
152 1 0.00000 4.08165 61.22482 
153 1 0.00000 6.12248 63.26565 
154 1 2.04083 4.08165 63.26565 
155 1 2.04083 6.12248 61.22482 
156 1 0.00000 4.08165 65.30648 
157 1 0.00000 6.12248 67.34731 
158 1 2.04083 4.08165 67.34731 
159 1 2.04083 6.12248 65.30648 
160 1 0.00000 4.08165 69.38813 
161 1 0.00000 6.12248 71.42896 
162 1 2.04083 4.08165 71.42896 
163 1 2.04083 6.12248 69.38813 
164 1 0.00000 4.08165 73.46979 
165 1 0.00000 6.12248 75.51062 
166 1 2.04083 4.08165 75.51062 
167 1 2.04083 6.12248 73.46979 
168 1 0.00000 4.08165 77.55144 
169 1 0.00000 6.12248 79.59227 
170 1 2.04083 4.08165 79.59227 
171 1 2.04083 6.12248 77.55144 
172 1 0.00000 4.08165 81.63310 
173 1 0.00000 6.12248 83.67393 
174 1 2.04083 4.08165 83.67393 
175 1 2.04083 6.12248 81.63310 
176 1 0.00000 4.08165 85.71475 
177 1 0.00000 6.12248 87.75558 
178 1 2.04083 4.08165 87.75558 
179 1 2.04083 6.12248 85.71475 
180 1 0.00000 4.08165 89.79641 
181 1 0.00000 6.12248 91.83724 
182 1 2.04083 4.08165 91.83724 
183 1 2.04083 6.12248 89.79641 
184 1 0.00000 8.16331 0.00000 
185 1 0.00000 10.20414 2.04083 
186 1 2.04083 8.16331 2.04083 
187 1 2.04083 10.20414 0.00000 
188 1 0.00000 8.16331 4.08165 
189 1 0.00000 10.20414 6.12248 
190 1 2.04083 8.16331 6.12248 
191 1 2.04083 10.20414 4.08165 
192 1 0.00000 8.16331 8.16331 
193 1 0.00000 10.20414 10.20414 
194 1 2.04083 8.16331 10.20414 
195 1 2.04083 10.20414 8.16331 
196 1 0.00000 8.16331 12.24496 
197 1 0.00000 10.20414 14.28579 
198 1 2.04083 8.16331 14.28579 
199 1 2.04083 10.20414 12.24496 
200 1 0.00000 8.16331 16.32662 
201 1 0.00000 10.20414 18.36745 
202 1 2.04083 8.16331 18.36745 
203 1 2.04083 10.20414 16.32662 
204 1 0.00000 8.16331 20.40827 
205 1 0.00000 10.20414 22.44910 
206 1 2.04083 8.16331 22.44910 
207 1 2.04083 10.20414 20.40827 
208 1 0.00000 8.16331 24.48993 
209 1 0.00000 10.20414 26.53076 
210 1 2.04083 8.16331 26.53076 
211 1 2.04083 10.20414 24.48993 
212 1 0.00000 8.16331 28.57158 
213 1 0.00000 10.20414 30.61241 
214 1 2.04083 8.16331 30.61241 
215 1 2.04083 10.20414 28.57158 
216 1 0.00000 8.16331 32.65324 
217 1 0.00000 10.20414 34.69407 
218 1 2.04083 8.16331 34.69407 
219 1 2.04083 10.20414 32.65324 
220 1 0.00000 8.16331 36.73489 
221 1 0.00000 10.20414 38.77572 
222 1 2.04083 8.16331 38.77572 
223 1 2.04083 10.20414 36.73489 
224 1 0.00000 8.16331 40.81655 
225 1 0.00000 10.20414 42.85738 
226 1 2.04083 8.16331 42.85738 
227 1 2.04083 10.20414 40.81655 
228 1 0.00000 8.16331 44.89820 
229 1 0.00000 10.20414 46.93903 
230 1 2.04083 8.16331 46.93903 
231 1 2.04083 10.20414 44.89820 
232 1 0.00000 8.16331 48.97986 
233 1 0.00000 10.20414 51.02069 
234 1 2.04083 8.16331 51.02069 
235 1 2.04083 10.20414 48.97986 
236 1 0.00000 8.16331 53.06151 
237 1 0.00000 10.20414 55.10234 
238 1 2.04083 8.16331 55.10234 
239 1 2.04083 10.20414 53.06151 
240 1 0.00000 8.16331 57.14317 
241 1 0.00000 10.20414 59.18400 
242 1 2.04083 8.16331 59.18400 
243 1 2.04083 10.20414 57.14317 
244 1 0.00000 8.16331 61.22482 
245 1 0.00000 10.20414 63.26565 
246 1 2.04083 8.16331 63.26565 
247 1 2.04083 10.20414 61.22482 
248 1 0.00000 8.16331 65.30648 
249 1 0.00000 10.20414 67.34731 
250 1 2.04083 8.16331 67.34731 
251 1 2.04083 10.20414 65.30648 
252 1 0.00000 8.16331 69.38813 
253 1 0.00000 10.20414 71.42896 
254 1 2.04083 8.16331 71.42896 
255 1 2.04083 10.20414 69.38813 
256 1 0.00000 8.16331 73.46979 
257 1 0.00000 10.20414 75.51062 
258 1 2.04083 8.16331 75.51062 
259 1 2.04083 10.20414 73.46979 
260 1 0.00000 8.16331 77.55144 
261 1 0.00000 10.20414 79.59227 
262 1 2.04083 8.16331 79.59227 
263 1 2.04083 10.20414 77.55144 
264 1 0.00000 8.16331 81.63310 
265 1 0.00000 10.20414 83.67393 
266 1 2.04083 8.16331 83.67393 
267 1 2.04083 10.20414 81.63310 
268 1 0.00000 8.16331 85.71475 
269 1 0.00000 10.20414 87.75558 
270 1 2.04083 8.16331 87.75558 
271 1 2.04083 10.20414 85.71475 
272 1 0.00000 8.16331 89.79641 
273 1 0.00000 10.20414 91.83724 
274 1 2.04083 8.16331 91.83724 
275 1 2.04083 10.20414 89.79641 
276 1 0.00000 12.24496 0.00000 
277 1 0.00000 14.28579 2.04083 
278 1 2.04083 12.24496 2.04083 
279 1 2.04083 14.28579 0.00000 
280 1 0.00000 12.24496 4.08165 
281 1 0.00000 14.28579 6.12248 
282 1 2.04083 12.24496 6.12248 
283 1 2.04083 14.28579 4.08165 
284 1 0.00000 12.24496 8.16331 
285 1 0.00000 14.28579 10.20414 
286 1 2.04083 12.24496 10.20414 
287 1 2.04083 14.28579 8.16331 
288 1 0.00000 12.24496 12.24496 
289 1 0.00000 14.28579 14.28579 
290 1 2.04083 12.24496 14.28579 
291 1 2.04083 14.28579 12.24496 
292 1 0.00000 12.24496 16.32662 
293 1 0.00000 14.28579 18.36745 
294 1 2.04083 12.24496 18.36745 
295 1 2.04083 14.28579 16.32662 
296 1 0.00000 12.24496 20.40827 
297 1 0.00000 14.28579 22.44910 
298 1 2.04083 12.24496 22.44910 
299 1 2.04083 14.28579 20.40827 
300 1 0.00000 12.24496 24.48993 
301 1 0.00000 14.28579 26.53076 
302 1 2.04083 12.24496 26.53076 
303 1 2.04083 14.28579 24.48993 
304 1 0.00000 12.24496 28.57158 
305 1 0.00000 14.28579 30.61241 
306 1 2.04083 12.24496 30.61241 
307 1 2.04083 14.28579 28.57158 
308 1 0.00000 12.24496 32.65324 
309 1 0.00000 14.28579 34.69407 
310 1 2.04083 12.24496 34.69407 
311 1 2.04083 14.28579 32.65324 
312 1 0.00000 12.24496 36.73489 
313 1 0.00000 14.28579 38.77572 
314 1 2.04083 12.24496 38.77572 
315 1 2.04083 14.28579 36.73489 
316 1 0.00000 12.24496 40.81655 
317 1 0.00000 14.28579 42.85738 
318 1 2.04083 12.24496 42.85738 
319 1 2.04083 14.28579 40.81655 
320 1 0.00000 12.24496 44.89820 
321 1 0.00000 14.28579 46.93903 
322 1 2.04083 12.24496 46.93903 
323 1 2.04083 14.28579 44.89820 
324 1 0.00000 12.24496 48.97986 
325 1 0.00000 14.28579 51.02069 
326 1 2.04083 12.24496 51.02069 
327 1 2.04083 14.28579 48.97986 
328 1 0.00000 12.24496 53.06151 
329 1 0.00000 14.28579 55.10234 
330 1 2.04083 12.24496 55.10234 
331 1 2.04083 14.28579 53.06151 
332 1 0.00000 12.24496 57.14317 
333 1 0.00000 14.28579 59.18400 
334 1 2.04083 12.24496 59.18400 
335 1 2.04083 14.28579 57.14317 
336 1 0.00000 12.24496 61.22482 
337 1 0.00000 14.28579 63.26565 
338 1 2.04083 12.24496 63.26565 
339 1 2.04083 14.28579 61.22482 
340 1 0.00000 12.24496 65.30648 
341 1 0.00000 14.28579 67.34731 
342 1 2.04083 12.24496 67.34731 
343 1 2.04083 14.28579 65.30648 
344 1 0.00000 12.24496 69.38813 
345 1 0.00000 14.28579 71.42896 
346 1 2.04083 12.24496 71.42896 
347 1 2.04083 14.28579 69.38813 
348 1 0.00000 12.24496 73.46979 
349 1 0.00000 14.28579 75.51062 
350 1 2.04083 12.24496 75.51062 
351 1 2.04083 14.28579 73.46979 
352 1 0.00000 12.24496 77.55144 
353 1 0.00000 14.28579 79.59227 
354 1 2.04083 12.24496 79.59227 
355 1 2.04083 14.28579 77.55144 
356 1 0.00000 12.24496 81.63310 
357 1 0.00000 14.28579 83.67393 
358 1 2.04083 12.24496 83.67393 
359 1 2.04083 14.28579 81.63310 
360 1 0.00000 12.24496 85.71475 
361 1 0.00000 14.28579 87.75558 
362 1 2.04083 12.24496 87.75558 
363 1 2.04083 14.28579 85.71475 
364 1 0.00000 12.24496 89.79641 
365 1 0.00000 14.28579 91.83724 
366 1 2.04083 12.24496 91.83724 
367 1 2.04083 14.28579 89.79641 
368 1 0.00000 16.32662 0.00000 
369 1 0.00000 18.36745 2.04083 
370 1 2.04083 16.32662 2.04083 
371 1 2.04083 18.36745 0.00000 
372 1 0.00000 16.32662 4.08165 
373 1 0.00000 18.36745 6.12248 
374 1 2.04083 16.32662 6.12248 
375 1 2.04083 18.36745 4.08165 
376 1 0.00000 16.32662 8.16331 
377 1 0.00000 18.36745 10.20414 
378 1 2.04083 16.32662 10.20414 
379 1 2.04083 18.36745 8.16331 
380 1 0.00000 16.32662 12.24496 
381 1 0.00000 18.36745 14.28579 
382 1 2.04083 16.32662 14.28579 
383 1 2.04083 18.36745 12.24496 
384 1 0.00000 16.32662 16.32662 
385 1 0.00000 18.36745 18.36745 
386 1 2.04083 16.32662 18.36745 
387 1 2.04083 18.36745 16.32662 
388 1 0.00000 16.32662 20.40827 
389 1 0.00000 18.36745 22.44910 
390 1 2.04083 16.32662 22.44910 
391 1 2.04083 18.36745 20.40827 
392 1 0.00000 16.32662 24.48993 
393 1 0.00000 18.36745 26.53076 
394 1 2.04083 16.32662 26.53076 
395 1 2.04083 18.36745 24.48993 
396 1 0.00000 16.32662 28.57158 
397 1 0.00000 18.36745 30.61241 
398 1 2.04083 16.32662 30.61241 
399 1 2.04083 18.36745 28.57158 
400 1 0.00000 16.32662 32.65324 
401 1 0.00000 18.36745 34.69407 
402 1 2.04083 16.32662 34.69407 
403 1 2.04083 18.36745 32.65324 
404 1 0.00000 16.32662 36.73489 
405 1 0.00000 18.36745 38.77572 
406 1 2.04083 16.32662 38.77572 
407 1 2.04083 18.36745 36.73489 
408 1 0.00000 16.32662 40.81655 
409 1 0.00000 18.36745 42.85738 
410 1 2.04083 16.32662 42.85738 
411 1 2.04083 18.36745 40.81655 
412 1 0.00000 16.32662 44.89820 
413 1 0.00000 18.36745 46.93903 
414 1 2.04083 16.32662 46.93903 
415 1 2.04083 18.36745 44.89820 
416 1 0.00000 16.32662 48.97986 
417 1 0.00000 18.36745 51.02069 
418 1 2.04083 16.32662 51.02069 
419 1 2.04083 18.36745 48.97986 
420 1 0.00000 16.32662 53.06151 
421 1 0.00000 18.36745 55.10234 
422 1 2.04083 16.32662 55.10234 
423 1 2.04083 18.36745 53.06151 
424 1 0.00000 16.32662 57.14317 
425 1 0.00000 18.36745 59.18400 
426 1 2.04083 16.32662 59.18400 
427 1 2.04083 18.36745 57.14317 
428 1 0.00000 16.32662 61.22482 
429 1 0.00000 18.36745 63.26565 
430 1 2.04083 16.32662 63.26565 
431 1 2.04083 18.36745 61.22482 
432 1 0.00000 16.32662 65.30648 
433 1 0.00000 18.36745 67.34731 
434 1 2.04083 16.32662 67.34731 
435 1 2.04083 18.36745 65.30648 
436 1 0.00000 16.32662 69.38813 
437 1 0.00000 18.36745 71.42896 
438 1 2.04083 16.32662 71.42896 
439 1 2.04083 18.36745 69.38813 
440 1 0.00000 16.32662 73.46979 
441 1 0.00000 18.36745 75.51062 
442 1 2.04083 16.32662 75.51062 
443 1 2.04083 18.36745 73.46979 
444 1 0.00000 16.32662 77.55144 
445 1 0.00000 18.36745 79.59227 
446 1 2.04083 16.32662 79.59227 
447 1 2.04083 18.36745 77.55144 
448 1 0.00000 16.32662 81.63310 
449 1 0.00000 18.36745 83.67393 
450 1 2.04083 16.32662 83.67393 
451 1 2.04083 18.36745 81.63310 
452 1 0.00000 16.32662 85.71475 
453 1 0.00000 18.36745 87.75558 
454 1 2.04083 16.32662 87.75558 
455 1 2.04083 18.36745 85.71475 
456 1 0.00000 16.32662 89.79641 
457 1 0.00000 18.36745 91.83724 
458 1 2.04083 16.32662 91.83724 
459 1 2.04083 18.36745 89.79641 
460 1 0.00000 20.40827 0.00000 
461 1 0.00000 22.44910 2.04083 
462 1 2.04083 20.40827 2.04083 
463 1 2.04083 22.44910 0.00000 
464 1 0.00000 20.40827 4.08165 
465 1 0.00000 22.44910 6.12248 
466 1 2.04083 20.40827 6.12248 
467 1 2.04083 22.44910 4.08165 
468 1 0.00000 20.40827 8.16331 
469 1 0.00000 22.44910 10.20414 
470 1 2.04083 20.40827 10.20414 
471 1 2.04083 22.44910 8.16331 
472 1 0.00000 20.40827 12.24496 
473 1 0.00000 22.44910 14.28579 
474 1 2.04083 20.40827 14.28579 
475 1 2.04083 22.44910 12.24496 
476 1 0.00000 20.40827 16.32662 
477 1 0.00000 22.44910 18.36745 
478 1 2.04083 20.40827 18.36745 
479 1 2.04083 22.44910 16.32662 
480 1 0.00000 20.40827 20.40827 
481 1 0.00000 22.44910 22.44910 
482 1 2.04083 20.40827 22.44910 
483 1 2.04083 22.44910 20.40827 
484 1 0.00000 20.40827 24.48993 
485 1 0.00000 22.44910 26.53076 
486 1 2.04083 20.40827 26.53076 
487 1 2.04083 22.44910 24.48993 
488 1 0.00000 20.40827 28.57158 
489 1 0.00000 22.44910 30.61241 
490 1 2.04083 20.40827 30.61241 
491 1 2.04083 22.44910 28.57158 
492 1 0.00000 20.40827 32.65324 
493 1 0.00000 22.44910 34.69407 
494 1 2.04083 20.40827 34.69407 
495 1 2.04083 22.44910 32.65324 
496 1 0.00000 20.40827 36.73489 
497 1 0.00000 22.44910 38.77572 
498 1 2.04083 20.40827 38.77572 
499 1 2.04083 22.44910 36.73489 
500 1 0.00000 20.40827 40.81655 
501 1 0.00000 22.44910 42.85738 
502 1 2.04083 20.40827 42.85738 
503 1 2.04083 22.44910 40.81655 
504 1 0.00000 20.40827 44.89820 
505 1 0.00000 22.44910 46.93903 
506 1 2.04083 20.40827 46.93903 
507 1 2.04083 22.44910 44.89820 
508 1 0.00000 20.40827 48.97986 
509 1 0.00000 22.44910 51.02069 
510 1 2.04083 20.40827 51.02069 
511 1 2.04083 22.44910 48.97986 
512 1 0.00000 20.40827 53.06151 
513 1 0.00000 22.44910 55.10234 
514 1 2.04083 20.40827 55.10234 
515 1 2.04083 22.44910 53.06151 
516 1 0.00000 20.40827 57.14317 
517 1 0.00000 22.44910 59.18400 
518 1 2.04083 20.40827 59.18400 
519 1 2.04083 22.44910 57.14317 
520 1 0.00000 20.40827 61.22482 
521 1 0.00000 22.44910 63.26565 
522 1 2.04083 20.40827 63.26565 
523 1 2.04083 22.44910 61.22482 
524 1 0.00000 20.40827 65.30648 
525 1 0.00000 22.44910 67.34731 
526 1 2.04083 20.40827 67.34731 
527 1 2.04083 22.44910 65.30648 
528 1 0.00000 20.40827 69.38813 
529 1 0.00000 22.44910 71.42896 
530 1 2.04083 20.40827 71.42896 
531 1 2.04083 22.44910 69.38813 
532 1 0.00000 20.40827 73.46979 
533 1 0.00000 22.44910 75.51062 
534 1 2.04083 20.40827 75.51062 
535 1 2.04083 22.44910 73.46979 
536 1 0.00000 20.40827 77.55144 
537 1 0.00000 22.44910 79.59227 
538 1 2.04083 20.40827 79.59227 
539 1 2.04083 22.44910 77.55144 
540 1 0.00000 20.40827 81.63310 
541 1 0.00000 22.44910 83.67393 
542 1 2.04083 20.40827 83.67393 
543 1 2.04083 22.44910 81.63310 
544 1 0.00000 20.40827 85.71475 
545 1 0.00000 22.44910 87.75558 
546 1 2.04083 20.40827 87.75558 
547 1 2.04083 22.44910 85.71475 
548 1 0.00000 20.40827 89.79641 
549 1 0.00000 22.44910 91.83724 
550 1 2.04083 20.40827 91.83724 
551 1 2.04083 22.44910 89.79641 
552 1 0.00000 24.48993 0.00000 
553 1 0.00000 26.53076 2.04083 
554 1 2.04083 24.48993 2.04083 
555 1 2.04083 26.53076 0.00000 
556 1 0.00000 24.48993 4.08165 
557 1 0.00000 26.53076 6.12248 
558 1 2.04083 24.48993 6.12248 
559 1 2.04083 26.53076 4.08165 
560 1 0.00000 24.48993 8.16331 
561 1 0.00000 26.53076 10.20414 
562 1 2.04083 24.48993 10.20414 
563 1 2.04083 26.53076 8.16331 
564 1 0.00000 24.48993 12.24496 
565 1 0.00000 26.53076 14.28579 
566 1 2.04083 24.48993 14.28579 
567 1 2.04083 26.53076 12.24496 
568 1 0.00000 24.48993 16.32662 
569 1 0.00000 26.53076 18.36745 
570 1 2.04083 24.48993 18.36745 
571 1 2.04083 26.53076 16.32662 
572 1 0.00000 24.48993 20.40827 
573 1 0.00000 26.53076 22.44910 
574 1 2.04083 24.48993 22.44910 
575 1 2.04083 26.53076 20.40827 
576 1 0.00000 24.48993 24.48993 
577 1 0.00000 26.53076 26.53076 
578 1 2.04083 24.48993 26.53076 
579 1 2.04083 26.53076 24.48993 
580 1 0.00000 24.48993 28.57158 
581 1 0.00000 26.53076 30.61241 
582 1 2.04083 24.48993 30.61241 
583 1 2.04083 26.53076 28.57158 
584 1 0.00000 24.48993 32.65324 
585 1 0.00000 26.53076 34.69407 
586 1 2.04083 24.48993 34.69407 
587 1 2.04083 26.53076 32.65324 
588 1 0.00000 24.48993 36.73489 
589 1 0.00000 26.53076 38.77572 
590 1 2.04083 24.48993 38.77572 
591 1 2.04083 26.53076 36.73489 
592 1 0.00000 24.48993 40.81655 
593 1 0.00000 26.53076 42.85738 
594 1 2.04083 24.48993 42.85738 
595 1 2.04083 26.53076 40.81655 
596 1 0.00000 24.48993 44.89820 
597 1 0.00000 26.53076 46.93903 
598 1 2.04083 24.48993 46.93903 
599 1 2.04083 26.53076 44.89820 
600 1 0.00000 24.48993 48.97986 
601 1 0.00000 26.53076 51.02069 
602 1 2.04083 24.48993 51.02069 
603 1 2.04083 26.53076 48.97986 
604 1 0.00000 24.48993 53.06151 
605 1 0.00000 26.53076 55.10234 
606 1 2.04083 24.48993 55.10234 
607 1 2.04083 26.53076 53.06151 
608 1 0.00000 24.48993 57.14317 
609 1 0.00000 26.53076 59.18400 
610 1 2.04083 24.48993 59.18400 
611 1 2.04083 26.53076 57.14317 
612 1 0.00000 24.48993 61.22482 
613 1 0.00000 26.53076 63.26565 
614 1 2.04083 24.48993 63.26565 
615 1 2.04083 26.53076 61.22482 
616 1 0.00000 24.48993 65.30648 
617 1 0.00000 26.53076 67.34731 
618 1 2.04083 24.48993 67.34731 
619 1 2.04083 26.53076 65.30648 
620 1 0.00000 24.48993 69.38813 
621 1 0.00000 26.53076 71.42896 
622 1 2.04083 24.48993 71.42896 
623 1 2.04083 26.53076 69.38813 
624 1 0.00000 24.48993 73.46979 
625 1 0.00000 26.53076 75.51062 
626 1 2.04083 24.48993 75.51062 
627 1 2.04083 26.53076 73.46979 
628 1 0.00000 24.48993 77.55144 
629 1 0.00000 26.53076 79.59227 
630 1 2.04083 24.48993 79.59227 
631 1 2.04083 26.53076 77.55144 
632 1 0.00000 24.48993 81.63310 
633 1 0.00000 26.53076 83.67393 
634 1 2.04083 24.48993 83.67393 
635 1 2.04083 26.53076 81.63310 
636 1 0.00000 24.48993 85.71475 
637 1 0.00000 26.53076 87.75558 
638 1 2.04083 24.48993 87.75558 
639 1 2.04083 26.53076 85.71475 
640 1 0.00000 24.48993 89.79641 
641 1 0.00000 26.53076 91.83724 
642 1 2.04083 24.48993 91.83724 
643 1 2.04083 26.53076 89.79641 
644 1 0.00000 28.57158 0.00000 
645 1 0.00000 30.61241 2.04083 
646 1 2.04083 28.57158 2.04083 
647 1 2.04083 30.61241 0.00000 
648 1 0.00000 28.57158 4.08165 
649 1 0.00000 30.61241 6.12248 
650 1 2.04083 28.57158 6.12248 
651 1 2.04083 30.61241 4.08165 
652 1 0.00000 28.57158 8.16331 
653 1 0.00000 30.61241 10.20414 
654 1 2.04083 28.57158 10.20414 
655 1 2.04083 30.61241 8.16331 
656 1 0.00000 28.57158 12.24496 
657 1 0.00000 30.61241 14.28579 
658 1 2.04083 28.57158 14.28579 
659 1 2.04083 30.61241 12.24496 
660 1 0.00000 28.57158 16.32662 
661 1 0.00000 30.61241 18.36745 
662 1 2.04083 28.57158 18.36745 
663 1 2.04083 30.61241 16.32662 
664 1 0.00000 28.57158 20.40827 
665 1 0.00000 30.61241 22.44910 
666 1 2.04083 28.57158 22.44910 
667 1 2.04083 30.61241 20.40827 
668 1 0.00000 28.57158 24.48993 
669 1 0.00000 30.61241 26.53076 
670 1 2.04083 28.57158 26.53076 
671 1 2.04083 30.61241 24.48993 
672 1 0.00000 28.57158 28.57158 
673 1 0.00000 30.61241 30.61241 
674 1 2.04083 28.57158 30.61241 
675 1 2.04083 30.61241 28.57158 
676 1 0.00000 28.57158 32.65324 
677 1 0.00000 30.61241 34.69407 
678 1 2.04083 28.57158 34.69407 
679 1 2.04083 30.61241 32.65324 
680 1 0.00000 28.57158 36.73489 
681 1 0.00000 30.61241 38.77572 
682 1 2.04083 28.57158 38.77572 
683 1 2.04083 30.61241 36.73489 
684 1 0.00000 28.57158 40.81655 
685 1 0.00000 30.61241 42.85738 
686 1 2.04083 28.57158 42.85738 
687 1 2.04083 30.61241 40.81655 
688 1 0.00000 28.57158 44.89820 
689 1 0.00000 30.61241 46.93903 
690 1 2.04083 28.57158 46.93903 
691 1 2.04083 30.61241 44.89820 
692 1 0.00000 28.57158 48.97986 
693 1 0.00000 30.61241 51.02069 
694 1 2.04083 28.57158 51.02069 
695 1 2.04083 30.61241 48.97986 
696 1 0.00000 28.57158 53.06151 
697 1 0.00000 30.61241 55.10234 
698 1 2.04083 28.57158 55.10234 
699 1 2.04083 30.61241 53.06151 
700 1 0.00000 28.57158 57.14317 
701 1 0.00000 30.61241 59.18400 
702 1 2.04083 28.57158 59.18400 
703 1 2.04083 30.61241 57.14317 
704 1 0.00000 28.57158 61.22482 
705 1 0.00000 30.61241 63.26565 
706 1 2.04083 28.57158 63.26565 
707 1 2.04083 30.61241 61.22482 
708 1 0.00000 28.57158 65.30648 
709 1 0.00000 30.61241 67.34731 
710 1 2.04083 28.57158 67.34731 
711 1 2.04083 30.61241 65.30648 
712 1 0.00000 28.57158 69.38813 
713 1 0.00000 30.61241 71.42896 
714 1 2.04083 28.57158 71.42896 
715 1 2.04083 30.61241 69.38813 
716 1 0.00000 28.57158 73.46979 
717 1 0.00000 30.61241 75.51062 
718 1 2.04083 28.57158 75.51062 
719 1 2.04083 30.61241 73.46979 
720 1 0.00000 28.57158 77.55144 
721 1 0.00000 30.61241 79.59227 
722 1 2.04083 28.57158 79.59227 
723 1 2.04083 30.61241 77.55144 
724 1 0.00000 28.57158 81.63310 
725 1 0.00000 30.61241 83.67393 
726 1 2.04083 28.57158 83.67393 
727 1 2.04083 30.61241 81.63310 
728 1 0.00000 28.57158 85.71475 
729 1 0.00000 30.61241 87.75558 
730 1 2.04083 28.57158 87.75558 
731 1 2.04083 30.61241 85.71475 
732 1 0.00000 28.57158 89.79641 
733 1 0.00000 30.61241 91.83724 
734 1 2.04083 28.57158 91.83724 
735 1 2.04083 30.61241 89.79641 
736 1 0.00000 32.65324 0.00000 
737 1 0.00000 34.69407 2.04083 
738 1 2.04083 32.65324 2.04083 
739 1 2.04083 34.69407 0.00000 
740 1 0.00000 32.65324 4.08165 
741 1 0.00000 34.69407 6.12248 
742 1 2.04083 32.65324 6.12248 
743 1 2.04083 34.69407 4.08165 
744 1 0.00000 32.65324 8.16331 
745 1 0.00000 34.69407 10.20414 
746 1 2.04083 32.65324 10.20414 
747 1 2.04083 34.69407 8.16331 
748 1 0.00000 32.65324 12.24496 
749 1 0.00000 34.69407 14.28579 
750 1 2.04083 32.65324 14.28579 
751 1 2.04083 34.69407 12.24496 
752 1 0.00000 32.65324 16.32662 
753 1 0.00000 34.69407 18.36745 
754 1 2.04083 32.65324 18.36745 
755 1 2.04083 34.69407 16.32662 
756 1 0.00000 32.65324 20.40827 
757 1 0.00000 34.69407 22.44910 
758 1 2.04083 32.65324 22.44910 
759 1 2.04083 34.69407 20.40827 
760 1 0.00000 32.65324 24.48993 
761 1 0.00000 34.69407 26.53076 
762 1 2.04083 32.65324 26.53076 
763 1 2.04083 34.69407 24.48993 
764 1 0.00000 32.65324 28.57158 
765 1 0.00000 34.69407 30.61241 
766 1 2.04083 32.65324 30.61241 
767 1 2.04083 34.69407 28.57158 
768 1 0.00000 32.65324 32.65324 
769 1 0.00000 34.69407 34.69407 
770 1 2.04083 32.65324 34.69407 
771 1 2.04083 34.69407 32.65324 
772 1 0.00000 32.65324 36.73489 
773 1 0.00000 34.69407 38.77572 
774 1 2.04083 32.65324 38.77572 
775 1 2.04083 34.69407 36.73489 
776 1 0.00000 32.65324 40.81655 
777 1 0.00000 34.69407 42.85738 
778 1 2.04083 32.65324 42.85738 
779 1 2.04083 34.69407 40.81655 
780 1 0.00000 32.65324 44.89820 
781 1 0.00000 34.69407 46.93903 
782 1 2.04083 32.65324 46.93903 
783 1 2.04083 34.69407 44.89820 
784 1 0.00000 32.65324 48.97986 
785 1 0.00000 34.69407 51.02069 
786 1 2.04083 32.65324 51.02069 
787 1 2.04083 34.69407 48.97986 
788 1 0.00000 32.65324 53.06151 
789 1 0.00000 34.69407 55.10234 
790 1 2.04083 32.65324 55.10234 
791 1 2.04083 34.69407 53.06151 
792 1 0.00000 32.65324 57.14317 
793 1 0.00000 34.69407 59.18400 
794 1 2.04083 32.65324 59.18400 
795 1 2.04083 34.69407 57.14317 
796 1 0.00000 32.65324 61.22482 
797 1 0.00000 34.69407 63.26565 
798 1 2.04083 32.65324 63.26565 
799 1 2.04083 34.69407 61.22482 
800 1 0.00000 32.65324 65.30648 
801 1 0.00000 34.69407 67.34731 
802 1 2.04083 32.65324 67.34731 
803 1 2.04083 34.69407 65.30648 
804 1 0.00000 32.65324 69.38813 
805 1 0.00000 34.69407 71.42896 
806 1 2.04083 32.65324 71.42896 
807 1 2.04083 34.69407 69.38813 
808 1 0.00000 32.65324 73.46979 
809 1 0.00000 34.69407 75.51062 
810 1 2.04083 32.65324 75.51062 
811 1 2.04083 34.69407 73.46979 
812 1 0.00000 32.65324 77.55144 
813 1 0.00000 34.69407 79.59227 
814 1 2.04083 32.65324 79.59227 
815 1 2.04083 34.69407 77.55144 
816 1 0.00000 32.65324 81.63310 
817 1 0.00000 34.69407 83.67393 
818 1 2.04083 32.65324 83.67393 
819 1 2.04083 34.69407 81.63310 
820 1 0.00000 32.65324 85.71475 
821 1 0.00000 34.69407 87.75558 
822 1 2.04083 32.65324 87.75558 
823 1 2.04083 34.69407 85.71475 
824 1 0.00000 32.65324 89.79641 
825 1 0.00000 34.69407 91.83724 
826 1 2.04083 32.65324 91.83724 
827 1 2.04083 34.69407 89.79641 
828 1 0.00000 36.73489 0.00000 
829 1 0.00000 38.77572 2.04083 
830 1 2.04083 36.73489 2.04083 
831 1 2.04083 38.77572 0.00000 
832 1 0.00000 36.73489 4.08165 
833 1 0.00000 38.77572 6.12248 
834 1 2.04083 36.73489 6.12248 
835 1 2.04083 38.77572 4.08165 
836 1 0.00000 36.73489 8.16331 
837 1 0.00000 38.77572 10.20414 
838 1 2.04083 36.73489 10.20414 
839 1 2.04083 38.77572 8.16331 
840 1 0.00000 36.73489 12.24496 
841 1 0.00000 38.77572 14.28579 
842 1 2.04083 36.73489 14.28579 
843 1 2.04083 38.77572 12.24496 
844 1 0.00000 36.73489 16.32662 
845 1 0.00000 38.77572 18.36745 
846 1 2.04083 36.73489 18.36745 
847 1 2.04083 38.77572 16.32662 
848 1 0.00000 36.73489 20.40827 
849 1 0.00000 38.77572 22.44910 
850 1 2.04083 36.73489 22.44910 
851 1 2.04083 38.77572 20.40827 
852 1 0.00000 36.73489 24.48993 
853 1 0.00000 38.77572 26.53076 
854 1 2.04083 36.73489 26.53076 
855 1 2.04083 38.77572 24.48993 
856 1 0.00000 36.73489 28.57158 
857 1 0.00000 38.77572 30.61241 
858 1 2.04083 36.73489 30.61241 
859 1 2.04083 38.77572 28.57158 
860 1 0.00000 36.73489 32.65324 
861 1 0.00000 38.77572 34.69407 
862 1 2.04083 36.73489 34.69407 
863 1 2.04083 38.77572 32.65324 
864 1 0.00000 36.73489 36.73489 
865 1 0.00000 38.77572 38.77572 
866 1 2.04083 36.73489 38.77572 
867 1 2.04083 38.77572 36.73489 
868 1 0.00000 36.73489 40.81655 
869 1 0.00000 38.77572 42.85738 
870 1 2.04083 36.73489 42.85738 
871 1 2.04083 38.77572 40.81655 
872 1 0.00000 36.73489 44.89820 
873 1 0.00000 38.77572 46.93903 
874 1 2.04083 36.73489 46.93903 
875 1 2.04083 38.77572 44.89820 
876 1 0.00000 36.73489 48.97986 
877 1 0.00000 38.77572 51.02069 
878 1 2.04083 36.73489 51.02069 
879 1 2.04083 38.77572 48.97986 
880 1 0.00000 36.73489 53.06151 
881 1 0.00000 38.77572 55.10234 
882 1 2.04083 36.73489 55.10234 
883 1 2.04083 38.77572 53.06151 
884 1 0.00000 36.73489 57.14317 
885 1 0.00000 38.77572 59.18400 
886 1 2.04083 36.73489 59.18400 
887 1 2.04083 38.77572 57.14317 
888 1 0.00000 36.73489 61.22482 
889 1 0.00000 38.77572 63.26565 
890 1 2.04083 36.73489 63.26565 
891 1 2.04083 38.77572 61.22482 
892 1 0.00000 36.73489 65.30648 
893 1 0.00000 38.77572 67.34731 
894 1 2.04083 36.73489 67.34731 
895 1 2.04083 38.77572 65.30648 
896 1 0.00000 36.73489 69.38813 
897 1 0.00000 38.77572 71.42896 
898 1 2.04083 36.73489 71.42896 
899 1 2.04083 38.77572 69.38813 
900 1 0.00000 36.73489 73.46979 
901 1 0.00000 38.77572 75.51062 
902 1 2.04083 36.73489 75.51062 
903 1 2.04083 38.77572 73.46979 
904 1 0.00000 36.73489 77.55144 
905 1 0.00000 38.77572 79.59227 
906 1 2.04083 36.73489 79.59227 
907 1 2.04083 38.77572 77.55144 
908 1 0.00000 36.73489 81.63310 
909 1 0.00000 38.77572 83.67393 
910 1 2.04083 36.73489 83.67393 
911 1 2.04083 38.77572 81.63310 
912 1 0.00000 36.73489 85.71475 
913 1 0.00000 38.77572 87.75558 
914 1 2.04083 36.73489 87.75558 
915 1 2.04083 38.77572 85.71475 
916 1 0.00000 36.73489 89.79641 