
     Program PWSCF v.7.4.1 starts on  8Oct2025 at  0:39:28 

     This program is part of the open-source Quantum ESPRESSO suite
     for quantum simulation of materials; please cite
         "P. Giannozzi et al., J. Phys.:Condens. Matter 21 395502 (2009);
         "P. Giannozzi et al., J. Phys.:Condens. Matter 29 465901 (2017);
         "P. Giannozzi et al., J. Chem. Phys. 152 154105 (2020);
          URL http://www.quantum-espresso.org", 
     in publications or presentations arising from this work. More details at
     http://www.quantum-espresso.org/quote

     Parallel version (MPI), running on     1 processors

     MPI processes distributed on     1 nodes
     167 MiB available memory on the printing compute node when the environment starts

     Waiting for input...
     Reading input from standard input
Warning: card &CELL ignored
Warning: card / ignored

     Current dimensions of program PWSCF are:
     Max number of different atomic species (ntypx) = 10
     Max number of k-points (npk) =  40000
     Max angular momentum in pseudopotentials (lmaxx) =  4
     Message from routine setup:
     using ibrav=0 with symmetry is DISCOURAGED, use correct ibrav instead

     Subspace diagonalization in iterative solution of the eigenvalue problem:
     a serial algorithm will be used


     G-vector sticks info
     --------------------
     sticks:   dense  smooth     PW     G-vecs:    dense   smooth      PW
     Sum         475     475    151                 6855     6855    1243

     Using Slab Decomposition



     bravais-lattice index     =            0
     lattice parameter (alat)  =       7.5604  a.u.
     unit-cell volume          =     305.5804 (a.u.)^3
     number of atoms/cell      =            2
     number of atomic types    =            1
     number of electrons       =        28.00
     number of Kohn-Sham states=           14
     kinetic-energy cutoff     =      30.0000  Ry
     charge density cutoff     =     120.0000  Ry
     scf convergence threshold =      1.0E-07
     mixing beta               =       0.5000
     number of iterations used =            8  plain     mixing
     Exchange-correlation=  SLA  PZ   NOGX NOGC
                           (   1   1   0   0   0   0   0)

     celldm(1)=   7.560435  celldm(2)=   0.000000  celldm(3)=   0.000000
     celldm(4)=   0.000000  celldm(5)=   0.000000  celldm(6)=   0.000000

     crystal axes: (cart. coord. in units of alat)
               a(1) = (   0.000000   0.707107   0.707107 )  
               a(2) = (   0.707107   0.000000   0.707107 )  
               a(3) = (   0.707107   0.707107   0.000000 )  

     reciprocal axes: (cart. coord. in units 2 pi/alat)
               b(1) = ( -0.707107  0.707107  0.707107 )  
               b(2) = (  0.707107 -0.707107  0.707107 )  
               b(3) = (  0.707107  0.707107 -0.707107 )  


     PseudoPot. # 1 for Ge read from file:
     /home/bond/Software/QE/qe-7.4.1/pseudo/ge_lda_v1.4.uspp.F.UPF
     MD5 check sum: bf9d52b59cc8a669818bb2b52e0c2ba0
     Pseudo is Ultrasoft + core correction, Zval = 14.0
     Generated by new atomic code, or converted to UPF format
     Using radial grid of  873 points,  6 beta functions with: 
                l(1) =   0
                l(2) =   0
                l(3) =   1
                l(4) =   1
                l(5) =   2
                l(6) =   2
     Q(r) pseudized with  8 coefficients,  rinner =    1.400   1.400   1.400
                                                       1.400   1.400

     atomic species   valence    mass     pseudopotential
     Ge               14.00    72.63000     Ge( 1.00)

      4 Sym. Ops. (no inversion) found



   Cartesian axes

     site n.     atom                  positions (alat units)
         1        Ge     tau(   1) = (   0.0000000   0.0000000   0.0707107  )
         2        Ge     tau(   2) = (   0.3535534   0.3535534   0.3535534  )

     number of k points=    27
                       cart. coord. in units 2pi/alat
        k(    1) = (   0.0000000   0.0000000   0.0000000), wk =   0.0160000
        k(    2) = (   0.1414214   0.1414214  -0.1414214), wk =   0.0640000
        k(    3) = (   0.2828427   0.2828427  -0.2828427), wk =   0.0640000
        k(    4) = (   0.2828427   0.0000000   0.0000000), wk =   0.0640000
        k(    5) = (   0.4242641   0.1414214  -0.1414214), wk =   0.1280000
        k(    6) = (  -0.1414214  -0.4242641   0.4242641), wk =   0.1280000
        k(    7) = (   0.0000000  -0.2828427   0.2828427), wk =   0.1280000
        k(    8) = (   0.5656854   0.0000000   0.0000000), wk =   0.0640000
        k(    9) = (   0.0000000  -0.5656854   0.5656854), wk =   0.1280000
        k(   10) = (  -0.1414214  -0.4242641   0.7071068), wk =   0.0640000
        k(   11) = (   0.1414214  -0.1414214  -0.1414214), wk =   0.0640000
        k(   12) = (   0.2828427  -0.2828427  -0.2828427), wk =   0.0640000
        k(   13) = (   0.0000000   0.0000000   0.2828427), wk =   0.0320000
        k(   14) = (   0.1414214  -0.4242641  -0.1414214), wk =   0.1280000
        k(   15) = (  -0.1414214  -0.1414214   0.4242641), wk =   0.0640000
        k(   16) = (   0.1414214  -0.1414214  -0.4242641), wk =   0.0640000
        k(   17) = (  -0.4242641   0.1414214   0.4242641), wk =   0.1280000
        k(   18) = (   0.4242641   0.4242641  -0.1414214), wk =   0.0640000
        k(   19) = (  -0.4242641   0.4242641   0.1414214), wk =   0.0640000
        k(   20) = (   0.2828427   0.2828427   0.0000000), wk =   0.0320000
        k(   21) = (  -0.2828427   0.2828427  -0.0000000), wk =   0.0320000
        k(   22) = (   0.0000000   0.0000000   0.5656854), wk =   0.0320000
        k(   23) = (   0.5656854   0.5656854   0.0000000), wk =   0.0320000
        k(   24) = (  -0.5656854   0.5656854   0.0000000), wk =   0.0320000
        k(   25) = (  -0.4242641   0.1414214   0.7071068), wk =   0.0640000
        k(   26) = (   0.7071068   0.4242641  -0.1414214), wk =   0.1280000
        k(   27) = (   0.1414214   0.7071068  -0.4242641), wk =   0.1280000

     Dense  grid:     6855 G-vectors     FFT dimensions: (  27,  27,  27)

     Estimated max dynamical RAM per process >      31.64 MB

     Check: negative core charge=   -0.000124

     Initial potential from superposition of free atoms

     starting charge      27.9986, renormalised to      28.0000
     Starting wfcs are   18 randomized atomic wfcs

     total cpu time spent up to now is        0.9 secs

     Self-consistent Calculation

     iteration #  1     ecut=    30.00 Ry     beta= 0.50
     Davidson diagonalization with overlap
     ethr =  1.00E-02,  avg # of iterations =  1.9

     Threshold (ethr) on eigenvalues was too large:
     Diagonalizing with lowered threshold

     Davidson diagonalization with overlap
     ethr =  1.31E-04,  avg # of iterations =  2.0

     total cpu time spent up to now is        2.3 secs

     total energy              =    -426.10081380 Ry
     estimated scf accuracy    <       0.03842587 Ry

     iteration #  2     ecut=    30.00 Ry     beta= 0.50
     Davidson diagonalization with overlap
     ethr =  1.37E-04,  avg # of iterations =  1.0

     total cpu time spent up to now is        2.9 secs

     total energy              =    -426.09961132 Ry
     estimated scf accuracy    <       0.00641325 Ry

     iteration #  3     ecut=    30.00 Ry     beta= 0.50
     Davidson diagonalization with overlap
     ethr =  2.29E-05,  avg # of iterations =  2.1

     total cpu time spent up to now is        3.6 secs

     total energy              =    -426.10015342 Ry
     estimated scf accuracy    <       0.00008222 Ry

     iteration #  4     ecut=    30.00 Ry     beta= 0.50
     Davidson diagonalization with overlap
     ethr =  2.94E-07,  avg # of iterations =  3.6

     total cpu time spent up to now is        4.6 secs

     total energy              =    -426.10018035 Ry
     estimated scf accuracy    <       0.00000778 Ry

     iteration #  5     ecut=    30.00 Ry     beta= 0.50
     Davidson diagonalization with overlap
     ethr =  2.78E-08,  avg # of iterations =  2.7

     total cpu time spent up to now is        5.3 secs

     total energy              =    -426.10018185 Ry
     estimated scf accuracy    <       0.00000019 Ry

     iteration #  6     ecut=    30.00 Ry     beta= 0.50
     Davidson diagonalization with overlap
     ethr =  6.79E-10,  avg # of iterations =  4.1

     total cpu time spent up to now is        6.4 secs

     End of self-consistent calculation

          k = 0.0000 0.0000 0.0000 (   869 PWs)   bands (ev):

   -16.9575 -16.9542 -16.8907 -16.8556 -16.8314 -16.6790 -16.6527 -16.6496
   -16.6233 -16.6207  -4.7378   6.8581   7.9658   8.3834

          k = 0.1414 0.1414-0.1414 (   872 PWs)   bands (ev):

   -16.9963 -16.9812 -16.8899 -16.8162 -16.8161 -16.6978 -16.6926 -16.6179
   -16.6080 -16.5911  -4.2337   3.6954   7.1893   8.2416

          k = 0.2828 0.2828-0.2828 (   847 PWs)   bands (ev):

   -17.0267 -17.0127 -16.8713 -16.8078 -16.7898 -16.7010 -16.6971 -16.6123
   -16.5771 -16.5438  -2.8445   0.4451   6.4272   7.5504

          k = 0.2828 0.0000 0.0000 (   853 PWs)   bands (ev):

   -16.9918 -16.9794 -16.8855 -16.8092 -16.7901 -16.7256 -16.6834 -16.6190
   -16.5925 -16.5922  -4.0988   3.9167   6.6453   6.8388

          k = 0.4243 0.1414-0.1414 (   852 PWs)   bands (ev):

   -17.0261 -17.0164 -16.8792 -16.7873 -16.7777 -16.7266 -16.7013 -16.6235
   -16.5657 -16.5471  -2.9382   1.1120   5.6350   6.2067

          k =-0.1414-0.4243 0.4243 (   842 PWs)   bands (ev):

   -17.0347 -17.0026 -16.8530 -16.8155 -16.7762 -16.7086 -16.6919 -16.6392
   -16.5693 -16.5341  -2.0659  -0.0932   4.7101   6.3571

          k = 0.0000-0.2828 0.2828 (   857 PWs)   bands (ev):

   -17.0036 -16.9709 -16.8685 -16.8161 -16.7999 -16.7078 -16.6889 -16.6374
   -16.6019 -16.5774  -3.5231   2.5398   4.8720   7.3834

          k = 0.5657 0.0000 0.0000 (   846 PWs)   bands (ev):

   -17.0236 -17.0145 -16.8609 -16.7989 -16.7592 -16.7154 -16.7124 -16.6449
   -16.5511 -16.5473  -2.2470   0.5734   5.3682   5.4382

          k = 0.0000-0.5657 0.5657 (   842 PWs)   bands (ev):

   -17.0349 -17.0015 -16.8349 -16.8270 -16.7414 -16.7309 -16.6793 -16.6750
   -16.5594 -16.5327  -1.3057  -0.4410   4.0939   5.5226

          k =-0.1414-0.4243 0.7071 (   840 PWs)   bands (ev):

   -17.0421 -16.9862 -16.8676 -16.7968 -16.7709 -16.7110 -16.7010 -16.6353
   -16.5788 -16.5223  -1.4702  -0.4304   4.0360   5.5645

          k = 0.1414-0.1414-0.1414 (   872 PWs)   bands (ev):

   -16.9616 -16.9556 -16.8802 -16.8500 -16.8159 -16.6919 -16.6668 -16.6540
   -16.6190 -16.6169  -4.2996   4.7693   6.4572   8.1277

          k = 0.2828-0.2828-0.2828 (   847 PWs)   bands (ev):

   -16.9628 -16.9412 -16.8671 -16.8372 -16.7912 -16.7125 -16.6773 -16.6385
   -16.6158 -16.6084  -3.2674   1.8137   5.9684   7.6018

          k = 0.0000 0.0000 0.2828 (   853 PWs)   bands (ev):

   -16.9616 -16.9521 -16.8670 -16.8363 -16.8347 -16.6910 -16.6586 -16.6311
   -16.6248 -16.6148  -4.1121   4.4387   5.8169   6.9753

          k = 0.1414-0.4243-0.1414 (   852 PWs)   bands (ev):

   -17.0026 -16.9693 -16.8683 -16.7914 -16.7782 -16.7407 -16.6996 -16.6387
   -16.5931 -16.5766  -3.1923   2.3008   4.6190   6.2579

          k =-0.1414-0.1414 0.4243 (   852 PWs)   bands (ev):

   -17.0083 -16.9546 -16.8581 -16.8365 -16.7899 -16.7224 -16.6692 -16.6247
   -16.6240 -16.5687  -3.0394   1.6160   4.8323   6.3961

          k = 0.1414-0.1414-0.4243 (   852 PWs)   bands (ev):

   -16.9653 -16.9416 -16.8561 -16.8438 -16.8147 -16.7067 -16.6623 -16.6446
   -16.6142 -16.6120  -3.1805   2.2062   5.3425   5.6096

          k =-0.4243 0.1414 0.4243 (   842 PWs)   bands (ev):

   -17.0063 -16.9624 -16.8489 -16.8007 -16.7816 -16.7172 -16.7043 -16.6562
   -16.5899 -16.5653  -2.5805   1.2053   3.9159   6.5386

          k = 0.4243 0.4243-0.1414 (   842 PWs)   bands (ev):

   -17.0441 -16.9852 -16.8728 -16.8012 -16.7830 -16.7027 -16.7021 -16.6103
   -16.5981 -16.5246  -1.8925  -0.3247   4.3144   6.7805

          k =-0.4243 0.4243 0.1414 (   842 PWs)   bands (ev):

   -16.9679 -16.9367 -16.8499 -16.8320 -16.7830 -16.7172 -16.6886 -16.6572
   -16.6031 -16.6013  -2.6930   1.4641   4.6671   5.5331

          k = 0.2828 0.2828 0.0000 (   857 PWs)   bands (ev):

   -17.0329 -17.0082 -16.8949 -16.7912 -16.7591 -16.7502 -16.6956 -16.6081
   -16.5790 -16.5456  -3.3614   1.6414   5.2109   7.9633

          k =-0.2828 0.2828-0.0000 (   857 PWs)   bands (ev):

   -16.9688 -16.9478 -16.8637 -16.8400 -16.7740 -16.7320 -16.6713 -16.6632
   -16.6086 -16.6082  -3.6490   3.5523   4.9258   6.2077

          k = 0.0000 0.0000 0.5657 (   846 PWs)   bands (ev):

   -16.9682 -16.9266 -16.8519 -16.8349 -16.8235 -16.7202 -16.6602 -16.6253
   -16.6248 -16.6011  -2.4044   1.1159   4.7349   5.5708

          k = 0.5657 0.5657 0.0000 (   842 PWs)   bands (ev):

   -17.0154 -16.9387 -16.8540 -16.8135 -16.7649 -16.7543 -16.6786 -16.6305
   -16.6171 -16.5544  -1.3664  -0.2358   3.5668   5.7217

          k =-0.5657 0.5657 0.0000 (   842 PWs)   bands (ev):

   -16.9686 -16.9307 -16.8313 -16.8287 -16.8278 -16.7061 -16.6714 -16.6633
   -16.6063 -16.5923  -1.9155   0.6163   4.3817   4.8245

          k =-0.4243 0.1414 0.7071 (   840 PWs)   bands (ev):

   -17.0084 -16.9535 -16.8450 -16.8016 -16.7750 -16.7198 -16.7092 -16.6521
   -16.5915 -16.5638  -2.2573   1.1323   4.2305   4.5255

          k = 0.7071 0.4243-0.1414 (   840 PWs)   bands (ev):

   -17.0103 -16.9485 -16.8364 -16.8298 -16.7689 -16.7377 -16.6679 -16.6633
   -16.5990 -16.5571  -2.0493   0.6368   3.8606   5.1985

          k = 0.1414 0.7071-0.4243 (   840 PWs)   bands (ev):

   -17.0297 -17.0132 -16.8404 -16.8044 -16.7503 -16.7255 -16.7000 -16.6624
   -16.5501 -16.5373  -1.9036   0.2466   4.1243   5.2419

     highest occupied level (ev):     8.3834

!    total energy              =    -426.10018197 Ry
     estimated scf accuracy    <       0.00000003 Ry

     The total energy is the sum of the following terms:
     one-electron contribution =    -280.28942983 Ry
     hartree contribution      =     165.44850511 Ry
     xc contribution           =    -114.51003917 Ry
     ewald contribution        =    -196.74921808 Ry

     convergence has been achieved in   6 iterations

     Forces acting on atoms (cartesian axes, Ry/au):

     atom    1 type  1   force =     0.00000000    0.00000000   -0.11422349
     atom    2 type  1   force =     0.00000000    0.00000000    0.11422349

     Total force =     0.161536     Total SCF correction =     0.001257


     Computing stress (Cartesian axis) and pressure

          total   stress  (Ry/bohr**3)                   (kbar)     P=     -132.80
  -0.00083842   0.00050801  -0.00000000         -123.34       74.73       -0.00
   0.00050801  -0.00083842   0.00000000           74.73     -123.34        0.00
  -0.00000000   0.00000000  -0.00103145           -0.00        0.00     -151.73

     Message from routine punch:
     Nothing written, as per user request (disk_io='none')

     init_run     :      0.70s CPU      0.74s WALL (       1 calls)
     electrons    :      5.43s CPU      5.48s WALL (       1 calls)
     forces       :      0.06s CPU      0.07s WALL (       1 calls)
     stress       :      0.46s CPU      0.47s WALL (       1 calls)

     Called by init_run:
     wfcinit      :      0.39s CPU      0.41s WALL (       1 calls)
     potinit      :      0.01s CPU      0.01s WALL (       1 calls)
     hinit0       :      0.26s CPU      0.26s WALL (       1 calls)

     Called by electrons:
     c_bands      :      4.36s CPU      4.40s WALL (       7 calls)
     sum_band     :      0.92s CPU      0.93s WALL (       7 calls)
     v_of_rho     :      0.01s CPU      0.01s WALL (       7 calls)
     newd         :      0.16s CPU      0.17s WALL (       7 calls)
     mix_rho      :      0.01s CPU      0.01s WALL (       7 calls)

     Called by c_bands:
     init_us_2    :      0.14s CPU      0.14s WALL (     459 calls)
     cegterg      :      4.05s CPU      4.08s WALL (     189 calls)

     Called by *egterg:
     cdiaghg      :      0.17s CPU      0.17s WALL (     635 calls)
     h_psi        :      3.81s CPU      3.85s WALL (     689 calls)
     s_psi        :      0.08s CPU      0.08s WALL (     689 calls)
     g_psi        :      0.02s CPU      0.02s WALL (     473 calls)

     Called by h_psi:
     h_psi:calbec :      0.11s CPU      0.11s WALL (     689 calls)
     vloc_psi     :      3.59s CPU      3.62s WALL (     689 calls)
     add_vuspsi   :      0.08s CPU      0.09s WALL (     689 calls)

     General routines
     calbec       :      0.21s CPU      0.21s WALL (    1337 calls)
     fft          :      0.09s CPU      0.09s WALL (      37 calls)
     ffts         :      0.00s CPU      0.00s WALL (       7 calls)
     fftw         :      3.82s CPU      3.85s WALL (   17150 calls)

     Parallel routines

     PWSCF        :      6.81s CPU      6.91s WALL


   This run was terminated on:   0:39:34   8Oct2025            

=------------------------------------------------------------------------------=
   JOB DONE.
=------------------------------------------------------------------------------=
