Header of the LAMMPS data file 

9 atoms 
1 atom types

0.0 8.658497585076876  xlo xhi
0.0 7.498478867282787  ylo yhi
0.0 12.0  zlo zhi

Masses 

1  26.9815385

Atoms # atomic 

1 1 0.00000 0.00000 6.00000 
2 1 2.88617 0.00000 6.00000 
3 1 5.77233 0.00000 6.00000 
4 1 1.44308 2.49949 6.00000 
5 1 4.32925 2.49949 6.00000 
6 1 7.21541 2.49949 6.00000 
7 1 2.88617 4.99899 6.00000 
8 1 5.77233 4.99899 6.00000 
9 1 8.65850 4.99899 6.00000 
