
     Program PWSCF v.7.4.1 starts on 21Oct2025 at 17:34:19 

     This program is part of the open-source Quantum ESPRESSO suite
     for quantum simulation of materials; please cite
         "P. Giannozzi et al., J. Phys.:Condens. Matter 21 395502 (2009);
         "P. Giannozzi et al., J. Phys.:Condens. Matter 29 465901 (2017);
         "P. Giannozzi et al., J. Chem. Phys. 152 154105 (2020);
          URL http://www.quantum-espresso.org", 
     in publications or presentations arising from this work. More details at
     http://www.quantum-espresso.org/quote

     Parallel version (MPI), running on     2 processors

     MPI processes distributed on     1 nodes
     141 MiB available memory on the printing compute node when the environment starts

     Waiting for input...
     Reading input from standard input

     Current dimensions of program PWSCF are:
     Max number of different atomic species (ntypx) = 10
     Max number of k-points (npk) =  40000
     Max angular momentum in pseudopotentials (lmaxx) =  4
     file Cu.pz-d-rrkjus.UPF: wavefunction(s)  3D renormalized
     Message from routine setup:
     using ibrav=0 with symmetry is DISCOURAGED, use correct ibrav instead

     R & G space division:  proc/nbgrp/npool/nimage =       2
     Subspace diagonalization in iterative solution of the eigenvalue problem:
     a serial algorithm will be used


     Parallelization info
     --------------------
     sticks:   dense  smooth     PW     G-vecs:    dense   smooth      PW
     Min         255     126     45                 3815     1365     304
     Max         256     127     46                 3816     1368     305
     Sum         511     253     91                 7631     2733     609

     Using Slab Decomposition



     bravais-lattice index     =            0
     lattice parameter (alat)  =       4.8105  a.u.
     unit-cell volume          =      78.7126 (a.u.)^3
     number of atoms/cell      =            1
     number of atomic types    =            1
     number of electrons       =        11.00
     number of Kohn-Sham states=           10
     kinetic-energy cutoff     =      40.0000  Ry
     charge density cutoff     =     320.0000  Ry
     scf convergence threshold =      1.0E-07
     mixing beta               =       0.7000
     number of iterations used =            8  plain     mixing
     energy convergence thresh.=      1.0E-04
     force convergence thresh. =      1.0E-03
     press convergence thresh. =      5.0E-01
     Exchange-correlation=  SLA  PZ   NOGX NOGC
                           (   1   1   0   0   0   0   0)
     nstep                     =           50


     celldm(1)=   4.810457  celldm(2)=   0.000000  celldm(3)=   0.000000
     celldm(4)=   0.000000  celldm(5)=   0.000000  celldm(6)=   0.000000

     crystal axes: (cart. coord. in units of alat)
               a(1) = (   0.000000   0.707107   0.707107 )  
               a(2) = (   0.707107   0.000000   0.707107 )  
               a(3) = (   0.707107   0.707107   0.000000 )  

     reciprocal axes: (cart. coord. in units 2 pi/alat)
               b(1) = ( -0.707107  0.707107  0.707107 )  
               b(2) = (  0.707107 -0.707107  0.707107 )  
               b(3) = (  0.707107  0.707107 -0.707107 )  


     PseudoPot. # 1 for Cu read from file:
     /home/bond/Software/QE/qe-7.4.1/pseudo/Cu.pz-d-rrkjus.UPF
     MD5 check sum: fd38ae683e239c95a66f426e1f8e5fc7
     Pseudo is Ultrasoft, Zval = 11.0
     Generated by new atomic code, or converted to UPF format
     Using radial grid of  899 points,  3 beta functions with: 
                l(1) =   2
                l(2) =   2
                l(3) =   1
     Q(r) pseudized with 0 coefficients 


     atomic species   valence    mass     pseudopotential
     Cu               11.00    63.54600     Cu( 1.00)

     48 Sym. Ops., with inversion, found



   Cartesian axes

     site n.     atom                  positions (alat units)
         1        Cu     tau(   1) = (   0.0000000   0.0000000   0.0000000  )

     number of k points=    60  Methfessel-Paxton smearing, width (Ry)=  0.0200
                       cart. coord. in units 2pi/alat
        k(    1) = (   0.0441942   0.0441942   0.0441942), wk =   0.0078125
        k(    2) = (   0.1325825   0.1325825  -0.0441942), wk =   0.0234375
        k(    3) = (   0.2209709   0.2209709  -0.1325825), wk =   0.0234375
        k(    4) = (   0.3093592   0.3093592  -0.2209709), wk =   0.0234375
        k(    5) = (  -0.3093592  -0.3093592   0.3977476), wk =   0.0234375
        k(    6) = (  -0.2209709  -0.2209709   0.3093592), wk =   0.0234375
        k(    7) = (  -0.1325825  -0.1325825   0.2209709), wk =   0.0234375
        k(    8) = (  -0.0441942  -0.0441942   0.1325825), wk =   0.0234375
        k(    9) = (   0.2209709   0.0441942   0.0441942), wk =   0.0234375
        k(   10) = (   0.3093592   0.1325825  -0.0441942), wk =   0.0468750
        k(   11) = (   0.3977476   0.2209709  -0.1325825), wk =   0.0468750
        k(   12) = (  -0.2209709  -0.3977476   0.4861359), wk =   0.0468750
        k(   13) = (  -0.1325825  -0.3093592   0.3977476), wk =   0.0468750
        k(   14) = (  -0.0441942  -0.2209709   0.3093592), wk =   0.0468750
        k(   15) = (   0.0441942  -0.1325825   0.2209709), wk =   0.0468750
        k(   16) = (   0.3977476   0.0441942   0.0441942), wk =   0.0234375
        k(   17) = (   0.4861359   0.1325825  -0.0441942), wk =   0.0468750
        k(   18) = (  -0.1325825  -0.4861359   0.5745243), wk =   0.0468750
        k(   19) = (  -0.0441942  -0.3977476   0.4861359), wk =   0.0468750
        k(   20) = (   0.0441942  -0.3093592   0.3977476), wk =   0.0468750
        k(   21) = (   0.1325825  -0.2209709   0.3093592), wk =   0.0468750
        k(   22) = (   0.5745243   0.0441942   0.0441942), wk =   0.0234375
        k(   23) = (  -0.0441942  -0.5745243   0.6629126), wk =   0.0468750
        k(   24) = (   0.0441942  -0.4861359   0.5745243), wk =   0.0468750
        k(   25) = (   0.1325825  -0.3977476   0.4861359), wk =   0.0468750
        k(   26) = (   0.2209709  -0.3093592   0.3977476), wk =   0.0468750
        k(   27) = (  -0.6629126   0.0441942   0.0441942), wk =   0.0234375
        k(   28) = (  -0.5745243   0.1325825  -0.0441942), wk =   0.0468750
        k(   29) = (  -0.4861359   0.2209709  -0.1325825), wk =   0.0468750
        k(   30) = (  -0.4861359   0.0441942   0.0441942), wk =   0.0234375
        k(   31) = (  -0.3977476   0.1325825  -0.0441942), wk =   0.0468750
        k(   32) = (  -0.3093592   0.0441942   0.0441942), wk =   0.0234375
        k(   33) = (   0.1325825   0.1325825   0.1325825), wk =   0.0078125
        k(   34) = (   0.2209709   0.2209709   0.0441942), wk =   0.0234375
        k(   35) = (   0.3093592   0.3093592  -0.0441942), wk =   0.0234375
        k(   36) = (  -0.3093592  -0.3093592   0.5745243), wk =   0.0234375
        k(   37) = (  -0.2209709  -0.2209709   0.4861359), wk =   0.0234375
        k(   38) = (  -0.1325825  -0.1325825   0.3977476), wk =   0.0234375
        k(   39) = (   0.3093592   0.1325825   0.1325825), wk =   0.0234375
        k(   40) = (   0.3977476   0.2209709   0.0441942), wk =   0.0468750
        k(   41) = (  -0.2209709  -0.3977476   0.6629126), wk =   0.0468750
        k(   42) = (  -0.1325825  -0.3093592   0.5745243), wk =   0.0468750
        k(   43) = (  -0.0441942  -0.2209709   0.4861359), wk =   0.0468750
        k(   44) = (   0.4861359   0.1325825   0.1325825), wk =   0.0234375
        k(   45) = (  -0.1325825  -0.4861359   0.7513010), wk =   0.0468750
        k(   46) = (  -0.0441942  -0.3977476   0.6629126), wk =   0.0468750
        k(   47) = (   0.0441942  -0.3093592   0.5745243), wk =   0.0468750
        k(   48) = (  -0.7513010   0.1325825   0.1325825), wk =   0.0234375
        k(   49) = (  -0.6629126   0.2209709   0.0441942), wk =   0.0468750
        k(   50) = (  -0.5745243   0.1325825   0.1325825), wk =   0.0234375
        k(   51) = (   0.2209709   0.2209709   0.2209709), wk =   0.0078125
        k(   52) = (   0.3093592   0.3093592   0.1325825), wk =   0.0234375
        k(   53) = (  -0.3093592  -0.3093592   0.7513010), wk =   0.0234375
        k(   54) = (  -0.2209709  -0.2209709   0.6629126), wk =   0.0234375
        k(   55) = (   0.3977476   0.2209709   0.2209709), wk =   0.0234375
        k(   56) = (  -0.2209709  -0.3977476   0.8396893), wk =   0.0468750
        k(   57) = (  -0.1325825  -0.3093592   0.7513010), wk =   0.0468750
        k(   58) = (  -0.8396893   0.2209709   0.2209709), wk =   0.0234375
        k(   59) = (   0.3093592   0.3093592   0.3093592), wk =   0.0078125
        k(   60) = (  -0.3093592  -0.3093592   0.9280777), wk =   0.0234375

     Dense  grid:     7631 G-vectors     FFT dimensions: (  27,  27,  27)

     Smooth grid:     2733 G-vectors     FFT dimensions: (  20,  20,  20)

     Estimated max dynamical RAM per process >      11.73 MB

     Estimated total dynamical RAM >      23.46 MB

     Initial potential from superposition of free atoms

     starting charge      10.9997, renormalised to      11.0000
     Starting wfcs are    6 randomized atomic wfcs +    4 random wfcs

     total cpu time spent up to now is        1.0 secs

     Self-consistent Calculation

     iteration #  1     ecut=    40.00 Ry     beta= 0.70
     Davidson diagonalization with overlap
     ethr =  1.00E-02,  avg # of iterations =  5.6

     total cpu time spent up to now is        1.5 secs

     total energy              =     -87.72802966 Ry
     estimated scf accuracy    <       0.24523404 Ry

     iteration #  2     ecut=    40.00 Ry     beta= 0.70
     Davidson diagonalization with overlap
     ethr =  2.23E-03,  avg # of iterations =  2.0

     total cpu time spent up to now is        1.8 secs

     total energy              =     -87.80996650 Ry
     estimated scf accuracy    <       0.20496003 Ry

     iteration #  3     ecut=    40.00 Ry     beta= 0.70
     Davidson diagonalization with overlap
     ethr =  1.86E-03,  avg # of iterations =  1.0

     total cpu time spent up to now is        2.0 secs

     total energy              =     -87.84240473 Ry
     estimated scf accuracy    <       0.00109095 Ry

     iteration #  4     ecut=    40.00 Ry     beta= 0.70
     Davidson diagonalization with overlap
     ethr =  9.92E-06,  avg # of iterations =  2.6

     total cpu time spent up to now is        2.3 secs

     total energy              =     -87.84281353 Ry
     estimated scf accuracy    <       0.00003541 Ry

     iteration #  5     ecut=    40.00 Ry     beta= 0.70
     Davidson diagonalization with overlap
     ethr =  3.22E-07,  avg # of iterations =  1.5

     total cpu time spent up to now is        2.6 secs

     total energy              =     -87.84281230 Ry
     estimated scf accuracy    <       0.00000722 Ry

     iteration #  6     ecut=    40.00 Ry     beta= 0.70
     Davidson diagonalization with overlap
     ethr =  6.56E-08,  avg # of iterations =  1.0

     total cpu time spent up to now is        2.8 secs

     End of self-consistent calculation

          k = 0.0442 0.0442 0.0442 (   332 PWs)   bands (ev):

     4.7565  10.6529  10.7107  10.7107  11.5171  11.5171  36.5868  38.5493
    39.3376  39.3376

          k = 0.1326 0.1326-0.0442 (   331 PWs)   bands (ev):

     5.5033  10.5036  10.8328  10.8329  11.4102  11.5786  32.1752  34.9447
    39.3566  40.2793

          k = 0.2210 0.2210-0.1326 (   335 PWs)   bands (ev):

     7.1565  10.4103  10.8203  10.8741  11.5400  11.8473  25.6898  33.8215
    38.2603  39.0449

          k = 0.3094 0.3094-0.2210 (   338 PWs)   bands (ev):

     8.5414  10.6676  10.7388  11.2301  11.9199  12.4723  20.2742  33.6512
    36.7282  37.0064

          k =-0.3094-0.3094 0.3977 (   338 PWs)   bands (ev):

     8.7472  10.6029  10.7001  11.6773  12.1157  13.3910  18.0067  34.5082
    35.3348  35.9773

          k =-0.2210-0.2210 0.3094 (   338 PWs)   bands (ev):

     8.2362  10.6996  10.7917  10.7962  11.9778  12.0385  21.9165  34.7909
    35.6582  36.8917

          k =-0.1326-0.1326 0.2210 (   332 PWs)   bands (ev):

     6.5422  10.3854  10.8618  10.8945  11.4926  11.6836  27.7567  35.3670
    36.3842  39.8059

          k =-0.0442-0.0442 0.1326 (   334 PWs)   bands (ev):

     5.1344  10.5528  10.7920  10.7950  11.4234  11.5649  34.4746  36.9491
    37.3387  39.6691

          k = 0.2210 0.0442 0.0442 (   333 PWs)   bands (ev):

     5.8658  10.3567  10.9442  10.9590  11.2870  11.6535  32.4370  34.5547
    35.8768  38.0634

          k = 0.3094 0.1326-0.0442 (   334 PWs)   bands (ev):

     7.1932  10.1365  10.8265  11.1608  11.4563  11.9055  28.3215  31.0245
    35.3537  37.0698

          k = 0.3977 0.2210-0.1326 (   334 PWs)   bands (ev):

     8.7240  10.2272  10.5766  11.0725  11.9553  12.8353  22.4762  30.5492
    32.3221  36.5514

          k =-0.2210-0.3977 0.4861 (   338 PWs)   bands (ev):

     9.1472  10.3156  10.8881  10.9672  12.0870  14.9574  18.2788  30.0803
    31.3425  36.7023

          k =-0.1326-0.3094 0.3977 (   337 PWs)   bands (ev):

     9.0060  10.4204  10.5888  11.0016  11.8634  13.5709  20.7997  29.0301
    33.1963  37.7945

          k =-0.0442-0.2210 0.3094 (   334 PWs)   bands (ev):

     7.7731  10.1846  10.7037  11.1366  11.4033  12.2604  26.2733  29.1114
    36.0712  39.6386

          k = 0.0442-0.1326 0.2210 (   331 PWs)   bands (ev):

     6.2146  10.3541  10.8827  10.9655  11.3410  11.7068  30.1147  32.8737
    38.1300  39.8498

          k = 0.3977 0.0442 0.0442 (   333 PWs)   bands (ev):

     7.9712   9.8329  11.0386  11.4649  11.7082  11.8983  28.9855  30.5534
    31.0316  33.8773

          k = 0.4861 0.1326-0.0442 (   332 PWs)   bands (ev):

     8.9042   9.6733  10.9708  11.6658  11.9894  13.0691  25.5840  27.6093
    28.2358  35.0285

          k =-0.1326-0.4861 0.5745 (   340 PWs)   bands (ev):

     9.4289   9.7761  10.7426  11.4849  12.1242  15.9567  20.5039  25.1989
    28.5888  35.3801

          k =-0.0442-0.3977 0.4861 (   339 PWs)   bands (ev):

     9.7174   9.9569  10.4101  11.3560  11.8929  16.2099  20.3228  23.8773
    30.2476  36.4071

          k = 0.0442-0.3094 0.3977 (   336 PWs)   bands (ev):

     9.1722  10.1891  10.3688  11.2223  11.6330  13.5955  23.0257  26.0666
    32.9069  38.2221

          k = 0.1326-0.2210 0.3094 (   334 PWs)   bands (ev):

     7.9517  10.3723  10.7101  10.9275  11.6977  12.1682  23.9310  32.0570
    36.1496  37.6583

          k = 0.5745 0.0442 0.0442 (   329 PWs)   bands (ev):

     8.8768   9.4023  11.8860  11.9511  12.1435  13.8247  24.0684  26.7540
    28.0298  32.7393

          k =-0.0442-0.5745 0.6629 (   336 PWs)   bands (ev):

     9.0483   9.4127  11.5903  11.9319  12.2243  16.2017  21.8563  24.2832
    26.7998  34.2646

          k = 0.0442-0.4861 0.5745 (   341 PWs)   bands (ev):

     9.4432   9.6839  10.8755  11.6259  12.1046  17.9350  19.9865  22.5702
    28.1637  35.1677

          k = 0.1326-0.3977 0.4861 (   343 PWs)   bands (ev):

     9.4586  10.0939  10.6327  11.1680  12.0118  16.0469  18.6053  26.7352
    30.6079  36.5138

          k = 0.2210-0.3094 0.3977 (   338 PWs)   bands (ev):

     8.8409  10.5309  10.8033  11.1544  12.0515  13.5011  19.0275  32.2963
    33.7820  36.8798

          k =-0.6629 0.0442 0.0442 (   338 PWs)   bands (ev):

     8.8804   9.3031  12.0493  12.0838  12.2334  15.4025  21.6848  26.2551
    27.4854  32.5282

          k =-0.5745 0.1326-0.0442 (   334 PWs)   bands (ev):

     9.0607   9.5035  11.3432  11.8659  12.1311  14.5640  24.2885  24.7765
    27.2779  34.5135

          k =-0.4861 0.2210-0.1326 (   334 PWs)   bands (ev):

     9.2363   9.9848  10.5947  11.2764  12.0925  14.1287  21.3282  28.5255
    29.4428  35.8274

          k =-0.4861 0.0442 0.0442 (   331 PWs)   bands (ev):

     8.6878   9.5874  11.4650  11.7399  12.0247  12.3951  27.2953  27.7397
    29.0745  33.1756

          k =-0.3977 0.1326-0.0442 (   332 PWs)   bands (ev):

     8.2343   9.8962  10.7640  11.4037  11.7542  12.2442  26.8040  29.4297
    31.4179  35.8469

          k =-0.3094 0.0442 0.0442 (   336 PWs)   bands (ev):

     6.8794  10.1031  10.9890  11.1904  11.3537  11.7699  30.5940  32.3999
    34.4024  35.3084

          k = 0.1326 0.1326 0.1326 (   329 PWs)   bands (ev):

     5.8597  10.4827  10.8426  10.8426  11.5163  11.5163  29.8282  37.7747
    37.7747  37.9231

          k = 0.2210 0.2210 0.0442 (   331 PWs)   bands (ev):

     6.8798  10.3046  10.8279  11.0231  11.3073  11.9202  28.0508  30.8644
    39.6106  40.4348

          k = 0.3094 0.3094-0.0442 (   333 PWs)   bands (ev):

     8.4998  10.2122  10.5861  11.1106  11.4452  12.7765  24.5063  27.4325
    36.5757  37.3440

          k =-0.3094-0.3094 0.5745 (   338 PWs)   bands (ev):

     9.2404  10.3108  10.7052  11.0200  11.9025  14.6471  19.4762  27.7246
    33.5921  35.5139

          k =-0.2210-0.2210 0.4861 (   335 PWs)   bands (ev):

     9.1851  10.1951  10.7266  11.0668  12.1377  14.5333  19.4613  29.1690
    31.8325  34.6666

          k =-0.1326-0.1326 0.3977 (   331 PWs)   bands (ev):

     8.4274  10.0003  10.6849  11.1877  12.0262  12.3399  24.4916  31.4452
    31.6294  34.6450

          k = 0.3094 0.1326 0.1326 (   334 PWs)   bands (ev):

     7.4673  10.2137  10.7780  11.0098  11.7296  11.8659  25.9780  33.2397
    34.8744  36.3334

          k = 0.3977 0.2210 0.0442 (   332 PWs)   bands (ev):

     8.6887  10.0204  10.5254  11.3325  11.6565  12.8308  24.7856  27.6537
    32.0339  38.7886

          k =-0.2210-0.3977 0.6629 (   336 PWs)   bands (ev):

     9.6097  10.0500  10.2334  11.4012  11.8701  14.9311  21.8420  25.0332
    29.1698  39.5770

          k =-0.1326-0.3094 0.5745 (   341 PWs)   bands (ev):

     9.6588   9.8946  10.4795  11.3606  12.0745  16.8963  19.0247  26.0657
    27.2938  38.4260

          k =-0.0442-0.2210 0.4861 (   336 PWs)   bands (ev):

     9.2646   9.8456  10.5208  11.5575  11.9051  13.9133  23.6014  26.5078
    28.2885  38.0288

          k = 0.4861 0.1326 0.1326 (   332 PWs)   bands (ev):

     9.0444   9.7772  10.8148  11.4083  12.1348  13.4482  23.3083  27.9487
    30.0307  33.9668

          k =-0.1326-0.4861 0.7513 (   341 PWs)   bands (ev):

     9.3678   9.7046  10.7619  11.6954  12.0981  15.5886  22.7520  24.8702
    25.7844  37.5033

          k =-0.0442-0.3977 0.6629 (   340 PWs)   bands (ev):

     9.5690   9.9593  10.4171  11.5261  12.2199  18.8526  20.5097  22.9242
    24.0629  40.7012

          k = 0.0442-0.3094 0.5745 (   339 PWs)   bands (ev):

     9.6676   9.9639  10.2991  11.5058  12.0841  16.7887  20.9896  24.3247
    25.7894  40.5800

          k =-0.7513 0.1326 0.1326 (   339 PWs)   bands (ev):

     9.1956   9.5071  11.3270  11.8017  12.1540  16.8635  21.7454  22.3439
    28.5404  33.3944

          k =-0.6629 0.2210 0.0442 (   340 PWs)   bands (ev):

     9.3247   9.6326  10.9745  11.7200  12.2209  17.4183  22.0660  22.5113
    25.3540  37.2389

          k =-0.5745 0.1326 0.1326 (   338 PWs)   bands (ev):

     9.2038   9.5983  11.1194  11.6340  12.1736  15.1020  22.4533  24.6362
    29.0468  33.5763

          k = 0.2210 0.2210 0.2210 (   338 PWs)   bands (ev):

     7.6502  10.6219  10.7904  10.7904  11.7792  11.7792  23.6376  36.8000
    36.8000  36.9547

          k = 0.3094 0.3094 0.1326 (   337 PWs)   bands (ev):

     8.5125  10.5470  10.6273  10.8973  11.6957  12.6790  22.2057  30.4125
    36.8000  37.1217

          k =-0.3094-0.3094 0.7513 (   337 PWs)   bands (ev):

     9.5137  10.2019  10.3382  11.2217  11.7219  14.6807  21.5335  24.8006
    33.2254  35.4443

          k =-0.2210-0.2210 0.6629 (   343 PWs)   bands (ev):

     9.6016   9.8134  10.6695  11.4753  11.9750  17.7726  19.1173  23.0663
    30.5087  34.1769

          k = 0.3977 0.2210 0.2210 (   337 PWs)   bands (ev):

     8.7712  10.4846  10.7785  10.8931  12.1040  12.9940  20.5229  32.8030
    33.1216  35.2690

          k =-0.2210-0.3977 0.8397 (   337 PWs)   bands (ev):

     9.3861  10.1354  10.5445  11.1811  12.0141  15.0251  19.7173  27.9599
    29.5055  38.3171

          k =-0.1326-0.3094 0.7513 (   339 PWs)   bands (ev):

     9.7077   9.8714  10.4266  11.4743  12.0850  18.1420  19.4749  23.2784
    26.9168  38.3885

          k =-0.8397 0.2210 0.2210 (   341 PWs)   bands (ev):

     9.4666   9.9451  10.6873  11.2844  12.0795  16.4275  18.7947  25.8071
    30.9540  34.3300

          k = 0.3094 0.3094 0.3094 (   338 PWs)   bands (ev):

     8.6107  10.6696  10.6696  12.0686  12.0686  12.2913  18.8281  36.1897
    36.4625  36.4625

          k =-0.3094-0.3094 0.9281 (   341 PWs)   bands (ev):

     8.9615  10.4695  10.8249  11.1807  12.0545  14.3139  18.1370  31.0659
    34.3117  35.6748

     the Fermi energy is    13.8505 ev

!    total energy              =     -87.84281354 Ry
     estimated scf accuracy    <       0.00000003 Ry
     smearing contrib. (-TS)   =       0.00008999 Ry
     internal energy E=F+TS    =     -87.84290354 Ry

     The total energy is F=E-TS. E is the sum of the following terms:
     one-electron contribution =     -11.60331461 Ry
     hartree contribution      =      19.34585961 Ry
     xc contribution           =     -14.03801868 Ry
     ewald contribution        =     -81.54742986 Ry

     convergence has been achieved in   6 iterations


     Computing stress (Cartesian axis) and pressure

          total   stress  (Ry/bohr**3)                   (kbar)     P=      -67.43
  -0.00045835   0.00000000   0.00000000          -67.43        0.00        0.00
   0.00000000  -0.00045835   0.00000000            0.00      -67.43        0.00
   0.00000000   0.00000000  -0.00045835            0.00        0.00      -67.43


     BFGS Geometry Optimization
     Energy error            =      1.3E-03 Ry
     Gradient error          =      0.0E+00 Ry/Bohr
     Cell gradient error     =      6.7E+01 kbar

     number of scf cycles    =   1
     number of bfgs steps    =   0

     enthalpy           new  =     -87.8428135418 Ry

     new trust radius        =       0.0203324855 bohr
     new conv_thr            =       0.0000001000 Ry

     new unit-cell volume =     76.03761 a.u.^3 (    11.26761 Ang^3 )
     density =      9.36495 g/cm^3

CELL_PARAMETERS (angstrom)
   0.000000000   1.779374194   1.779374194
   1.779374194   0.000000000   1.779374194
   1.779374194   1.779374194   0.000000000

ATOMIC_POSITIONS (angstrom)
Cu               0.0000000000        0.0000000000        0.0000000000    0   0   0


     Message from routine punch:
     Nothing written, as per user request (disk_io='none')
     NEW-OLD atomic charge density approx. for the potential
     New effective cutoffs (rho, wfc):  324.72   40.93

     total cpu time spent up to now is        3.1 secs

     Self-consistent Calculation

     iteration #  1     ecut=    40.00 Ry     beta= 0.70
     Davidson diagonalization with overlap
     ethr =  1.00E-06,  avg # of iterations =  4.0

     total cpu time spent up to now is        3.5 secs

     total energy              =     -87.84351652 Ry
     estimated scf accuracy    <       0.00001886 Ry

     iteration #  2     ecut=    40.00 Ry     beta= 0.70
     Davidson diagonalization with overlap
     ethr =  1.71E-07,  avg # of iterations =  1.9

     total cpu time spent up to now is        3.8 secs

     total energy              =     -87.84352058 Ry
     estimated scf accuracy    <       0.00001253 Ry

     iteration #  3     ecut=    40.00 Ry     beta= 0.70
     Davidson diagonalization with overlap
     ethr =  1.14E-07,  avg # of iterations =  1.0

     total cpu time spent up to now is        4.0 secs

     total energy              =     -87.84352323 Ry
     estimated scf accuracy    <       0.00000013 Ry

     iteration #  4     ecut=    40.00 Ry     beta= 0.70
     Davidson diagonalization with overlap
     ethr =  1.22E-09,  avg # of iterations =  1.5

     total cpu time spent up to now is        4.2 secs

     End of self-consistent calculation

          k = 0.0447 0.0447 0.0447 (   332 PWs)   bands (ev):

     5.1642  11.2051  11.2663  11.2663  12.1174  12.1174  37.7061  39.7125
    40.6180  40.6180

          k = 0.1341 0.1341-0.0447 (   331 PWs)   bands (ev):

     5.9292  11.0468  11.3948  11.3950  12.0041  12.1820  33.2579  36.0938
    40.5249  41.5962

          k = 0.2235 0.2235-0.1341 (   335 PWs)   bands (ev):

     7.6159  10.9460  11.3808  11.4381  12.1406  12.4647  26.6510  34.9478
    39.3851  40.3764

          k = 0.3129 0.3129-0.2235 (   338 PWs)   bands (ev):

     9.0104  11.2195  11.2949  11.7932  12.5416  13.1067  21.1413  34.7662
    37.8299  38.2764

          k =-0.3129-0.3129 0.4024 (   338 PWs)   bands (ev):

     9.2148  11.1509  11.2541  12.2688  12.7485  14.0037  18.8564  35.6027
    36.5427  37.1223

          k =-0.2235-0.2235 0.3129 (   338 PWs)   bands (ev):

     8.7054  11.2522  11.3413  11.3556  12.6029  12.6610  22.8091  35.9775
    36.6989  38.1663

          k =-0.1341-0.1341 0.2235 (   332 PWs)   bands (ev):

     6.9907  10.9208  11.4249  11.4597  12.0905  12.2925  28.7572  36.5627
    37.4858  41.1194

          k =-0.0447-0.0447 0.1341 (   334 PWs)   bands (ev):

     5.5515  11.0991  11.3519  11.3551  12.0181  12.1678  35.5942  38.1770
    38.4705  40.9161

          k = 0.2235 0.0447 0.0447 (   333 PWs)   bands (ev):

     6.3000  10.8918  11.5120  11.5278  11.8737  12.2612  33.5284  35.7243
    36.9791  39.2164

          k = 0.3129 0.1341-0.0447 (   334 PWs)   bands (ev):

     7.6543  10.6587  11.3869  11.7403  12.0517  12.5263  29.3306  32.0942
    36.4756  38.2751

          k = 0.4024 0.2235-0.1341 (   334 PWs)   bands (ev):

     9.2041  10.7505  11.1237  11.6467  12.5782  13.4892  23.3735  31.6007
    33.4247  37.7375

          k =-0.2235-0.4024 0.4918 (   338 PWs)   bands (ev):

     9.6291  10.8437  11.4437  11.5348  12.7181  15.6300  19.1237  31.1139
    32.4411  37.8692

          k =-0.1341-0.3129 0.4024 (   337 PWs)   bands (ev):

     9.4891  10.9538  11.1320  11.5714  12.4816  14.2442  21.6683  30.0554
    34.3209  38.9854

          k =-0.0447-0.2235 0.3129 (   334 PWs)   bands (ev):

     8.2450  10.7089  11.2565  11.7147  11.9959  12.8985  27.2414  30.1428
    37.2413  40.8986

          k = 0.0447-0.1341 0.2235 (   331 PWs)   bands (ev):

     6.6566  10.8886  11.4468  11.5347  11.9306  12.3172  31.1595  33.9825
    39.2916  41.0744

          k = 0.4024 0.0447 0.0447 (   333 PWs)   bands (ev):

     8.4396  10.3387  11.6108  12.0610  12.3160  12.5193  30.0038  31.6159
    32.0774  34.9825

          k = 0.4918 0.1341-0.0447 (   332 PWs)   bands (ev):

     9.3778  10.1703  11.5381  12.2726  12.6144  13.7270  26.5274  28.5923
    29.2685  36.1705

          k =-0.1341-0.4918 0.5812 (   340 PWs)   bands (ev):

     9.9152  10.2757  11.2958  12.0814  12.7573  16.6800  21.3515  26.1588
    29.6105  36.5385

          k =-0.0447-0.4024 0.4918 (   339 PWs)   bands (ev):

    10.2220  10.4633  10.9447  11.9452  12.5131  16.9482  21.1572  24.8194
    31.3098  37.5793

          k = 0.0447-0.3129 0.4024 (   336 PWs)   bands (ev):

     9.6655  10.7123  10.9018  11.8041  12.2385  14.2794  23.9247  27.0410
    34.0265  39.4307

          k = 0.1341-0.2235 0.3129 (   334 PWs)   bands (ev):

     8.4228  10.9049  11.2640  11.4941  12.3063  12.8006  24.8582  33.1461
    37.2860  38.9116

          k = 0.5812 0.0447 0.0447 (   329 PWs)   bands (ev):

     9.3371   9.8849  12.5017  12.5746  12.7777  14.4748  25.0080  27.7199
    29.0171  33.8240

          k =-0.0447-0.5812 0.6706 (   336 PWs)   bands (ev):

     9.5119   9.8960  12.1876  12.5539  12.8630  16.8989  22.7664  25.2014
    27.7700  35.3921

          k = 0.0447-0.4918 0.5812 (   341 PWs)   bands (ev):

     9.9264  10.1803  11.4341  12.2303  12.7366  18.6898  20.8056  23.5052
    29.1727  36.3235

          k = 0.1341-0.4024 0.4918 (   343 PWs)   bands (ev):

     9.9523  10.6081  11.1773  11.7471  12.6387  16.7552  19.4444  27.7181
    31.6794  37.6833

          k = 0.2235-0.3129 0.4024 (   338 PWs)   bands (ev):

     9.3141  11.0736  11.3628  11.7188  12.6803  14.1491  19.8781  33.3763
    34.9231  38.0509

          k =-0.6706 0.0447 0.0447 (   338 PWs)   bands (ev):

     9.3366   9.7806  12.6785  12.7117  12.8727  16.0638  22.6010  27.2046
    28.4555  33.6106

          k =-0.5812 0.1341-0.0447 (   334 PWs)   bands (ev):

     9.5285   9.9915  11.9279  12.4837  12.7645  15.2472  25.2059  25.7280
    28.2640  35.6453

          k =-0.4918 0.2235-0.1341 (   334 PWs)   bands (ev):

     9.7218  10.4947  11.1421  11.8615  12.7237  14.8148  22.1992  29.5289
    30.4996  36.9934

          k =-0.4918 0.0447 0.0447 (   331 PWs)   bands (ev):

     9.1543  10.0799  12.0567  12.3513  12.6526  13.0248  28.2666  28.7501
    30.0938  34.2662

          k =-0.4024 0.1341-0.0447 (   332 PWs)   bands (ev):

     8.7086  10.4052  11.3213  11.9963  12.3653  12.8796  27.7795  30.4586
    32.4981  37.0082

          k =-0.3129 0.0447 0.0447 (   336 PWs)   bands (ev):

     7.3341  10.6238  11.5587  11.7716  11.9437  12.3839  31.6505  33.5134
    35.4529  36.4497

          k = 0.1341 0.1341 0.1341 (   329 PWs)   bands (ev):

     6.2937  11.0241  11.4051  11.4051  12.1160  12.1160  30.8684  39.0099
    39.0321  39.0321

          k = 0.2235 0.2235 0.0447 (   331 PWs)   bands (ev):

     7.3357  10.8358  11.3883  11.5954  11.8949  12.5418  29.0550  31.9314
    40.7821  41.8006

          k = 0.3129 0.3129-0.0447 (   333 PWs)   bands (ev):

     8.9833  10.7375  11.1311  11.6869  12.0405  13.4360  25.4381  28.4324
    37.8112  38.4935

          k =-0.3129-0.3129 0.5812 (   338 PWs)   bands (ev):

     9.7277  10.8385  11.2514  11.5911  12.5232  15.3385  20.3239  28.7263
    34.7443  36.6395

          k =-0.2235-0.2235 0.4918 (   335 PWs)   bands (ev):

     9.6687  10.7148  11.2779  11.6407  12.7717  15.2162  20.3089  30.1949
    32.9337  35.7978

          k =-0.1341-0.1341 0.4024 (   331 PWs)   bands (ev):

     8.9043  10.5140  11.2379  11.7686  12.6541  12.9748  25.4249  32.5341
    32.6850  35.8066

          k = 0.3129 0.1341 0.1341 (   334 PWs)   bands (ev):

     7.9324  10.7395  11.3359  11.5811  12.3389  12.4849  26.9433  34.3784
    35.9204  37.5950

          k = 0.4024 0.2235 0.0447 (   332 PWs)   bands (ev):

     9.1727  10.5356  11.0687  11.9207  12.2626  13.4902  25.7213  28.6535
    33.1312  40.0147

          k =-0.2235-0.4024 0.6706 (   336 PWs)   bands (ev):

    10.1091  10.5643  10.7611  11.9924  12.4888  15.6441  22.7117  25.9868
    30.2121  40.8208

          k =-0.1341-0.3129 0.5812 (   341 PWs)   bands (ev):

    10.1584  10.3987  11.0181  11.9500  12.7048  17.6291  19.8601  27.0273
    28.3051  39.6424

          k =-0.0447-0.2235 0.4918 (   336 PWs)   bands (ev):

     9.7507  10.3512  11.0648  12.1576  12.5254  14.5999  24.5080  27.4760
    29.3208  39.2349

          k = 0.4918 0.1341 0.1341 (   332 PWs)   bands (ev):

     9.5228  10.2786  11.3740  12.0012  12.7688  14.1164  24.2126  28.9553
    31.0790  35.1018

          k =-0.1341-0.4918 0.7600 (   341 PWs)   bands (ev):

     9.8485  10.2030  11.3167  12.3032  12.7296  16.3063  23.6328  25.8070
    26.7712  38.6975

          k =-0.0447-0.4024 0.6706 (   340 PWs)   bands (ev):

    10.0555  10.4712  10.9524  12.1252  12.8583  19.6336  21.3360  23.8222
    25.0336  41.9659

          k = 0.0447-0.3129 0.5812 (   339 PWs)   bands (ev):

    10.1605  10.4763  10.8298  12.1032  12.7148  17.5372  21.8353  25.2538
    26.7770  41.8466

          k =-0.7600 0.1341 0.1341 (   339 PWs)   bands (ev):

     9.6664   9.9950  11.9091  12.4164  12.7888  17.5856  22.5852  23.2924
    29.5442  34.5204

          k =-0.6706 0.2235 0.0447 (   340 PWs)   bands (ev):

     9.8005  10.1274  11.5384  12.3298  12.8594  18.1585  22.9193  23.4414
    26.3148  38.4275

          k =-0.5812 0.1341 0.1341 (   338 PWs)   bands (ev):

     9.6785  10.0906  11.6918  12.2392  12.8097  15.8032  23.3299  25.5938
    30.0659  34.7043

          k = 0.2235 0.2235 0.2235 (   338 PWs)   bands (ev):

     8.1146  11.1654  11.3496  11.3496  12.3931  12.3931  24.5612  37.9952
    38.0479  38.0479

          k = 0.3129 0.3129 0.1341 (   337 PWs)   bands (ev):

     8.9891  11.0870  11.1747  11.4620  12.3049  13.3306  23.1010  31.4667
    38.0482  38.2491

          k =-0.3129-0.3129 0.7600 (   337 PWs)   bands (ev):

    10.0134  10.7225  10.8693  11.8037  12.3326  15.3897  22.3985  25.7559
    34.3671  36.5764

          k =-0.2235-0.2235 0.6706 (   343 PWs)   bands (ev):

    10.0970  10.3131  11.2173  12.0713  12.5998  18.5324  19.9258  24.0026
    31.5723  35.3053

          k = 0.4024 0.2235 0.2235 (   337 PWs)   bands (ev):

     9.2464  11.0217  11.3308  11.4577  12.7361  13.6419  21.3903  33.8752
    34.2597  36.4284

          k =-0.2235-0.4024 0.8494 (   337 PWs)   bands (ev):

     9.8777  10.6521  11.0863  11.7606  12.6409  15.7269  20.5647  28.9566
    30.5613  39.5233

          k =-0.1341-0.3129 0.7600 (   339 PWs)   bands (ev):

    10.2019  10.3797  10.9622  12.0703  12.7158  18.9120  20.2896  24.2098
    27.9110  39.6090

          k =-0.8494 0.2235 0.2235 (   341 PWs)   bands (ev):

     9.9583  10.4511  11.2366  11.8700  12.7102  17.1454  19.6305  26.7765
    32.0302  35.4579

          k = 0.3129 0.3129 0.3129 (   338 PWs)   bands (ev):

     9.0761  11.2219  11.2219  12.6987  12.6987  12.8625  19.6806  37.1983
    37.7155  37.7155

          k =-0.3129-0.3129 0.9388 (   341 PWs)   bands (ev):

     9.4369  11.0082  11.3855  11.7468  12.6838  14.9655  18.9843  32.1270
    35.4857  36.7938

     the Fermi energy is    14.5279 ev

!    total energy              =     -87.84352325 Ry
     estimated scf accuracy    <          2.4E-10 Ry
     smearing contrib. (-TS)   =       0.00009248 Ry
     internal energy E=F+TS    =     -87.84361573 Ry

     The total energy is F=E-TS. E is the sum of the following terms:
     one-electron contribution =     -10.15363760 Ry
     hartree contribution      =      18.85998032 Ry
     xc contribution           =     -14.05726286 Ry
     ewald contribution        =     -82.49269559 Ry

     convergence has been achieved in   4 iterations


     Computing stress (Cartesian axis) and pressure

          total   stress  (Ry/bohr**3)                   (kbar)     P=      -11.68
  -0.00007938   0.00000000   0.00000000          -11.68        0.00        0.00
   0.00000000  -0.00007938   0.00000000            0.00      -11.68        0.00
   0.00000000   0.00000000  -0.00007938            0.00        0.00      -11.68

     Energy error            =      7.1E-04 Ry
     Gradient error          =      0.0E+00 Ry/Bohr
     Cell gradient error     =      1.2E+01 kbar

     number of scf cycles    =   2
     number of bfgs steps    =   1

     enthalpy           old  =     -87.8428135418 Ry
     enthalpy           new  =     -87.8435232488 Ry

     CASE: enthalpy          _new < enthalpy          _old

     new trust radius        =       0.0041185651 bohr
     new conv_thr            =       0.0000000010 Ry

     new unit-cell volume =     75.50018 a.u.^3 (    11.18797 Ang^3 )
     density =      9.43161 g/cm^3

CELL_PARAMETERS (angstrom)
   0.000000000   1.775172069   1.775172069
   1.775172069   0.000000000   1.775172069
   1.775172069   1.775172069   0.000000000

ATOMIC_POSITIONS (angstrom)
Cu               0.0000000000        0.0000000000        0.0000000000    0   0   0


     Message from routine punch:
     Nothing written, as per user request (disk_io='none')
     NEW-OLD atomic charge density approx. for the potential
     New effective cutoffs (rho, wfc):  326.26   41.12

     total cpu time spent up to now is        4.4 secs

     Self-consistent Calculation

     iteration #  1     ecut=    40.00 Ry     beta= 0.70
     Davidson diagonalization with overlap
     ethr =  1.00E-06,  avg # of iterations =  3.0

     Threshold (ethr) on eigenvalues was too large:
     Diagonalizing with lowered threshold

     Davidson diagonalization with overlap
     ethr =  6.57E-09,  avg # of iterations =  1.4

     total cpu time spent up to now is        5.0 secs

     total energy              =     -87.84353757 Ry
     estimated scf accuracy    <       0.00000075 Ry

     iteration #  2     ecut=    40.00 Ry     beta= 0.70
     Davidson diagonalization with overlap
     ethr =  6.85E-09,  avg # of iterations =  2.0

     total cpu time spent up to now is        5.2 secs

     total energy              =     -87.84353773 Ry
     estimated scf accuracy    <       0.00000050 Ry

     iteration #  3     ecut=    40.00 Ry     beta= 0.70
     Davidson diagonalization with overlap
     ethr =  4.52E-09,  avg # of iterations =  1.0

     total cpu time spent up to now is        5.5 secs

     total energy              =     -87.84353784 Ry
     estimated scf accuracy    <          5.7E-09 Ry

     iteration #  4     ecut=    40.00 Ry     beta= 0.70
     Davidson diagonalization with overlap
     ethr =  5.14E-11,  avg # of iterations =  1.2

     total cpu time spent up to now is        5.7 secs

     End of self-consistent calculation

          k = 0.0448 0.0448 0.0448 (   332 PWs)   bands (ev):

     5.2501  11.3207  11.3827  11.3827  12.2432  12.2432  37.9389  39.9560
    40.8852  40.8852

          k = 0.1344 0.1344-0.0448 (   331 PWs)   bands (ev):

     6.0189  11.1605  11.5124  11.5128  12.1285  12.3085  33.4842  36.3337
    40.7689  41.8709

          k = 0.2241 0.2241-0.1344 (   335 PWs)   bands (ev):

     7.7124  11.0582  11.4982  11.5562  12.2665  12.5942  26.8522  35.1830
    39.6203  40.6546

          k = 0.3137 0.3137-0.2241 (   338 PWs)   bands (ev):

     9.1086  11.3350  11.4113  11.9111  12.6719  13.2398  21.3231  34.9986
    38.0605  38.5419

          k =-0.3137-0.3137 0.4033 (   338 PWs)   bands (ev):

     9.3127  11.2656  11.3700  12.3926  12.8812  14.1325  19.0346  35.8297
    36.7953  37.3631

          k =-0.2241-0.2241 0.3137 (   338 PWs)   bands (ev):

     8.8038  11.3679  11.4565  11.4728  12.7340  12.7915  22.9962  36.2257
    36.9159  38.4329

          k =-0.1344-0.1344 0.2241 (   332 PWs)   bands (ev):

     7.0850  11.0329  11.5429  11.5781  12.2158  12.4202  28.9666  36.8127
    37.7152  41.3943

          k =-0.0448-0.0448 0.1344 (   334 PWs)   bands (ev):

     5.6393  11.2135  11.4692  11.4724  12.1427  12.2942  35.8279  38.4337
    38.7068  41.1760

          k = 0.2241 0.0448 0.0448 (   333 PWs)   bands (ev):

     6.3913  11.0038  11.6310  11.6469  11.9966  12.3886  33.7565  35.9689
    37.2092  39.4570

          k = 0.3137 0.1344-0.0448 (   334 PWs)   bands (ev):

     7.7512  10.7680  11.5043  11.8618  12.1765  12.6565  29.5417  32.3177
    36.7098  38.5269

          k = 0.4033 0.2241-0.1344 (   334 PWs)   bands (ev):

     9.3047  10.8601  11.2383  11.7670  12.7088  13.6263  23.5615  31.8203
    33.6553  37.9856

          k =-0.2241-0.4033 0.4929 (   338 PWs)   bands (ev):

     9.7300  10.9542  11.5601  11.6537  12.8505  15.7712  19.3009  31.3297
    32.6712  38.1131

          k =-0.1344-0.3137 0.4033 (   337 PWs)   bands (ev):

     9.5903  11.0654  11.2458  11.6908  12.6111  14.3855  21.8504  30.2697
    34.5560  39.2342

          k =-0.0448-0.2241 0.3137 (   334 PWs)   bands (ev):

     8.3441  10.8186  11.3723  11.8358  12.1201  13.0323  27.4441  30.3585
    37.4856  41.1618

          k = 0.0448-0.1344 0.2241 (   331 PWs)   bands (ev):

     6.7496  11.0005  11.5649  11.6540  12.0542  12.4451  31.3780  34.2142
    39.5341  41.3296

          k = 0.4033 0.0448 0.0448 (   333 PWs)   bands (ev):

     8.5379  10.4445  11.7306  12.1859  12.4434  12.6495  30.2168  31.8381
    32.2958  35.2137

          k = 0.4929 0.1344-0.0448 (   332 PWs)   bands (ev):

     9.4771  10.2742  11.6569  12.3997  12.7454  13.8650  26.7248  28.7975
    29.4850  36.4094

          k =-0.1344-0.4929 0.5826 (   340 PWs)   bands (ev):

    10.0169  10.3803  11.4117  12.2064  12.8901  16.8317  21.5291  26.3596
    29.8243  36.7807

          k =-0.0448-0.4033 0.4929 (   339 PWs)   bands (ev):

    10.3276  10.5693  11.0567  12.0687  12.6431  17.1031  21.3322  25.0166
    31.5321  37.8243

          k = 0.0448-0.3137 0.4033 (   336 PWs)   bands (ev):

     9.7690  10.8218  11.0133  11.9260  12.3655  14.4229  24.1131  27.2449
    34.2606  39.6833

          k = 0.1344-0.2241 0.3137 (   334 PWs)   bands (ev):

     8.5217  11.0164  11.3800  11.6128  12.4338  12.9332  25.0524  33.3736
    37.5230  39.1742

          k = 0.5826 0.0448 0.0448 (   329 PWs)   bands (ev):

     9.4334   9.9859  12.6308  12.7053  12.9108  14.6112  25.2046  27.9222
    29.2236  34.0511

          k =-0.0448-0.5826 0.6722 (   336 PWs)   bands (ev):

     9.6088   9.9971  12.3128  12.6843  12.9969  17.0453  22.9567  25.3938
    27.9731  35.6280

          k = 0.0448-0.4929 0.5826 (   341 PWs)   bands (ev):

    10.0275  10.2842  11.5511  12.3570  12.8691  18.8482  20.9772  23.7011
    29.3839  36.5653

          k = 0.1344-0.4033 0.4929 (   343 PWs)   bands (ev):

    10.0557  10.7156  11.2914  11.8684  12.7701  16.9038  19.6204  27.9236
    31.9037  37.9278

          k = 0.2241-0.3137 0.4033 (   338 PWs)   bands (ev):

     9.4132  11.1871  11.4799  11.8370  12.8122  14.2851  20.0566  33.6015
    35.1619  38.2958

          k =-0.6722 0.0448 0.0448 (   338 PWs)   bands (ev):

     9.4319   9.8804  12.8104  12.8434  13.0067  16.2025  22.7928  27.4034
    28.6584  33.8373

          k =-0.5826 0.1344-0.0448 (   334 PWs)   bands (ev):

     9.6264  10.0935  12.0505  12.6131  12.8973  15.3906  25.3973  25.9277
    28.4705  35.8821

          k =-0.4929 0.2241-0.1344 (   334 PWs)   bands (ev):

     9.8235  10.6014  11.2568  11.9841  12.8560  14.9587  22.3817  29.7384
    30.7210  37.2372

          k =-0.4929 0.0448 0.0448 (   331 PWs)   bands (ev):

     9.2520  10.1829  12.1807  12.4794  12.7843  13.1569  28.4694  28.9618
    30.3071  34.4945

          k =-0.4033 0.1344-0.0448 (   332 PWs)   bands (ev):

     8.8082  10.5117  11.4380  12.1204  12.4934  13.0128  27.9836  30.6736
    32.7239  37.2511

          k =-0.3137 0.0448 0.0448 (   336 PWs)   bands (ev):

     7.4297  10.7327  11.6781  11.8933  12.0673  12.5126  31.8715  33.7463
    35.6725  36.6879

          k = 0.1344 0.1344 0.1344 (   329 PWs)   bands (ev):

     6.3850  11.1374  11.5229  11.5229  12.2417  12.2417  31.0859  39.2366
    39.2948  39.2948

          k = 0.2241 0.2241 0.0448 (   331 PWs)   bands (ev):

     7.4315  10.9470  11.5057  11.7153  12.0180  12.6721  29.2651  32.1545
    41.0268  42.0853

          k = 0.3137 0.3137-0.0448 (   333 PWs)   bands (ev):

     9.0848  10.8475  11.2452  11.8076  12.1653  13.5744  25.6332  28.6416
    38.0695  38.7337

          k =-0.3137-0.3137 0.5826 (   338 PWs)   bands (ev):

     9.8298  10.9489  11.3658  11.7108  12.6533  15.4836  20.5016  28.9357
    34.9853  36.8748

          k =-0.2241-0.2241 0.4929 (   335 PWs)   bands (ev):

     9.7699  10.8236  11.3934  11.7609  12.9047  15.3595  20.4867  30.4093
    33.1640  36.0345

          k =-0.1344-0.1344 0.4033 (   331 PWs)   bands (ev):

     9.0044  10.6215  11.3537  11.8902  12.7858  13.1080  25.6203  32.7618
    32.9052  36.0499

          k = 0.3137 0.1344 0.1344 (   334 PWs)   bands (ev):

     8.0302  10.8495  11.4527  11.7008  12.4666  12.6147  27.1453  34.6166
    36.1389  37.8585

          k = 0.4033 0.2241 0.0448 (   332 PWs)   bands (ev):

     9.2742  10.6434  11.1824  12.0440  12.3897  13.6285  25.9172  28.8626
    33.3607  40.2709

          k =-0.2241-0.4033 0.6722 (   336 PWs)   bands (ev):

    10.2137  10.6720  10.8716  12.1163  12.6185  15.7937  22.8940  26.1864
    30.4304  41.0806

          k =-0.1344-0.3137 0.5826 (   341 PWs)   bands (ev):

    10.2630  10.5041  11.1308  12.0735  12.8370  17.7828  20.0352  27.2281
    28.5172  39.8965

          k =-0.0448-0.2241 0.4929 (   336 PWs)   bands (ev):

     9.8525  10.4570  11.1787  12.2833  12.6554  14.7439  24.6978  27.6783
    29.5371  39.4870

          k = 0.4929 0.1344 0.1344 (   332 PWs)   bands (ev):

     9.6230  10.3836  11.4911  12.1254  12.9017  14.2566  24.4020  29.1657
    31.2982  35.3393

          k =-0.1344-0.4929 0.7618 (   341 PWs)   bands (ev):

     9.9490  10.3072  11.4329  12.4306  12.8620  16.4568  23.8173  26.0026
    26.9784  38.9472

          k =-0.0448-0.4033 0.6722 (   340 PWs)   bands (ev):

    10.1572  10.5783  11.0645  12.2508  12.9922  19.7974  21.5092  24.0097
    25.2375  42.2301

          k = 0.0448-0.3137 0.5826 (   339 PWs)   bands (ev):

    10.2636  10.5835  10.9410  12.2283  12.8471  17.6942  22.0125  25.4480
    26.9842  42.1112

          k =-0.7618 0.1344 0.1344 (   339 PWs)   bands (ev):

     9.7648  10.0970  12.0311  12.5452  12.9219  17.7371  22.7610  23.4911
    29.7542  34.7560

          k =-0.6722 0.2241 0.0448 (   340 PWs)   bands (ev):

     9.9000  10.2309  11.6566  12.4577  12.9933  18.3137  23.0978  23.6363
    26.5162  38.6761

          k =-0.5826 0.1344 0.1344 (   338 PWs)   bands (ev):

     9.7777  10.1935  11.8118  12.3661  12.9430  15.9503  23.5134  25.7943
    30.2792  34.9404

          k = 0.2241 0.2241 0.2241 (   338 PWs)   bands (ev):

     8.2121  11.2793  11.4667  11.4667  12.5218  12.5218  24.7547  38.2122
    38.3088  38.3088

          k = 0.3137 0.3137 0.1344 (   337 PWs)   bands (ev):

     9.0891  11.2001  11.2894  11.5803  12.4325  13.4673  23.2886  31.6870
    38.3091  38.4846

          k =-0.3137-0.3137 0.7618 (   337 PWs)   bands (ev):

    10.1181  10.8314  10.9805  11.9256  12.4606  15.5384  22.5798  25.9558
    34.6059  36.8130

          k =-0.2241-0.2241 0.6722 (   343 PWs)   bands (ev):

    10.2006  10.4177  11.3321  12.1962  12.7308  18.6917  20.0954  24.1987
    31.7948  35.5414

          k = 0.4033 0.2241 0.2241 (   337 PWs)   bands (ev):

     9.3460  11.1341  11.4466  11.5759  12.8687  13.7778  21.5722  34.0985
    34.4978  36.6714

          k =-0.2241-0.4033 0.8514 (   337 PWs)   bands (ev):

     9.9806  10.7602  11.1997  11.8820  12.7723  15.8741  20.7424  29.1648
    30.7825  39.7753

          k =-0.1344-0.3137 0.7618 (   339 PWs)   bands (ev):

    10.3053  10.4861  11.0744  12.1952  12.8481  19.0734  20.4604  24.4048
    28.1192  39.8641

          k =-0.8514 0.2241 0.2241 (   341 PWs)   bands (ev):

    10.0612  10.5570  11.3516  11.9927  12.8424  17.2960  19.8057  26.9794
    32.2553  35.6938

          k = 0.3137 0.3137 0.3137 (   338 PWs)   bands (ev):

     9.1736  11.3376  11.3376  12.8308  12.8308  12.9823  19.8594  37.4088
    37.9775  37.9775

          k =-0.3137-0.3137 0.9411 (   341 PWs)   bands (ev):

     9.5365  11.1210  11.5029  11.8653  12.8158  15.1023  19.1620  32.3486
    35.7312  37.0278

     the Fermi energy is    14.6701 ev

!    total energy              =     -87.84353784 Ry
     estimated scf accuracy    <          1.4E-11 Ry
     smearing contrib. (-TS)   =       0.00009336 Ry
     internal energy E=F+TS    =     -87.84363120 Ry

     The total energy is F=E-TS. E is the sum of the following terms:
     one-electron contribution =      -9.85498124 Ry
     hartree contribution      =      18.76066364 Ry
     xc contribution           =     -14.06134417 Ry
     ewald contribution        =     -82.68796942 Ry

     convergence has been achieved in   4 iterations


     Computing stress (Cartesian axis) and pressure

          total   stress  (Ry/bohr**3)                   (kbar)     P=        0.50
   0.00000340   0.00000000  -0.00000000            0.50        0.00       -0.00
  -0.00000000   0.00000340   0.00000000           -0.00        0.50        0.00
  -0.00000000  -0.00000000   0.00000340           -0.00       -0.00        0.50

     Energy error            =      1.5E-05 Ry
     Gradient error          =      0.0E+00 Ry/Bohr
     Cell gradient error     =      5.0E-01 kbar

     bfgs converged in   3 scf cycles and   2 bfgs steps
     (criteria: energy <  1.0E-04 Ry, force <  1.0E-03 Ry/Bohr, cell <  5.0E-01 kbar)

     End of BFGS Geometry Optimization

     Final enthalpy           =     -87.8435378365 Ry

     File /home/bond/Work/Lab4/Problem3/Cu_nk_8/pwscf.bfgs deleted, as requested
Begin final coordinates
     new unit-cell volume =     75.50018 a.u.^3 (    11.18797 Ang^3 )
     density =      9.43161 g/cm^3

CELL_PARAMETERS (angstrom)
   0.000000000   1.775172069   1.775172069
   1.775172069   0.000000000   1.775172069
   1.775172069   1.775172069   0.000000000

ATOMIC_POSITIONS (angstrom)
Cu               0.0000000000        0.0000000000        0.0000000000    0   0   0
End final coordinates


     Message from routine punch:
     Nothing written, as per user request (disk_io='none')

     Final scf calculation at the relaxed structure.
     The G-vectors are recalculated for the final unit cell
     Results may differ from those at the preceding step.

     Parallelization info
     --------------------
     sticks:   dense  smooth     PW     G-vecs:    dense   smooth      PW
     Min         249     126     45                 3694     1318     280
     Max         250     127     46                 3697     1319     281
     Sum         499     253     91                 7391     2637     561

     Using Slab Decomposition



     bravais-lattice index     =            0
     lattice parameter (alat)  =       4.8105  a.u.
     unit-cell volume          =      75.5002 (a.u.)^3
     number of atoms/cell      =            1
     number of atomic types    =            1
     number of electrons       =        11.00
     number of Kohn-Sham states=           10
     kinetic-energy cutoff     =      40.0000  Ry
     charge density cutoff     =     320.0000  Ry
     scf convergence threshold =      1.0E-09
     mixing beta               =       0.7000
     number of iterations used =            8  plain     mixing
     press convergence thresh. =      5.0E-01
     Exchange-correlation=  SLA  PZ   NOGX NOGC
                           (   1   1   0   0   0   0   0)

     celldm(1)=   4.810457  celldm(2)=   0.000000  celldm(3)=   0.000000
     celldm(4)=   0.000000  celldm(5)=   0.000000  celldm(6)=   0.000000

     crystal axes: (cart. coord. in units of alat)
               a(1) = (   0.000000   0.697353   0.697353 )  
               a(2) = (   0.697353   0.000000   0.697353 )  
               a(3) = (   0.697353   0.697353   0.000000 )  

     reciprocal axes: (cart. coord. in units 2 pi/alat)
               b(1) = ( -0.716997  0.716997  0.716997 )  
               b(2) = (  0.716997 -0.716997  0.716997 )  
               b(3) = (  0.716997  0.716997 -0.716997 )  


     PseudoPot. # 1 for Cu read from file:
     /home/bond/Software/QE/qe-7.4.1/pseudo/Cu.pz-d-rrkjus.UPF
     MD5 check sum: fd38ae683e239c95a66f426e1f8e5fc7
     Pseudo is Ultrasoft, Zval = 11.0
     Generated by new atomic code, or converted to UPF format
     Using radial grid of  899 points,  3 beta functions with: 
                l(1) =   2
                l(2) =   2
                l(3) =   1
     Q(r) pseudized with 0 coefficients 


     atomic species   valence    mass     pseudopotential
     Cu               11.00    63.54600     Cu( 1.00)

     48 Sym. Ops., with inversion, found



   Cartesian axes

     site n.     atom                  positions (alat units)
         1        Cu     tau(   1) = (   0.0000000   0.0000000   0.0000000  )

     number of k points=    60  Methfessel-Paxton smearing, width (Ry)=  0.0200
                       cart. coord. in units 2pi/alat
        k(    1) = (   0.0448123   0.0448123   0.0448123), wk =   0.0078125
        k(    2) = (   0.1344368   0.1344368  -0.0448123), wk =   0.0234375
        k(    3) = (   0.2240614   0.2240614  -0.1344368), wk =   0.0234375
        k(    4) = (   0.3136860   0.3136860  -0.2240614), wk =   0.0234375
        k(    5) = (  -0.3136860  -0.3136860   0.4033105), wk =   0.0234375
        k(    6) = (  -0.2240614  -0.2240614   0.3136860), wk =   0.0234375
        k(    7) = (  -0.1344368  -0.1344368   0.2240614), wk =   0.0234375
        k(    8) = (  -0.0448123  -0.0448123   0.1344368), wk =   0.0234375
        k(    9) = (   0.2240614   0.0448123   0.0448123), wk =   0.0234375
        k(   10) = (   0.3136860   0.1344368  -0.0448123), wk =   0.0468750
        k(   11) = (   0.4033105   0.2240614  -0.1344368), wk =   0.0468750
        k(   12) = (  -0.2240614  -0.4033105   0.4929351), wk =   0.0468750
        k(   13) = (  -0.1344368  -0.3136860   0.4033105), wk =   0.0468750
        k(   14) = (  -0.0448123  -0.2240614   0.3136860), wk =   0.0468750
        k(   15) = (   0.0448123  -0.1344368   0.2240614), wk =   0.0468750
        k(   16) = (   0.4033105   0.0448123   0.0448123), wk =   0.0234375
        k(   17) = (   0.4929351   0.1344368  -0.0448123), wk =   0.0468750
        k(   18) = (  -0.1344368  -0.4929351   0.5825597), wk =   0.0468750
        k(   19) = (  -0.0448123  -0.4033105   0.4929351), wk =   0.0468750
        k(   20) = (   0.0448123  -0.3136860   0.4033105), wk =   0.0468750
        k(   21) = (   0.1344368  -0.2240614   0.3136860), wk =   0.0468750
        k(   22) = (   0.5825597   0.0448123   0.0448123), wk =   0.0234375
        k(   23) = (  -0.0448123  -0.5825597   0.6721842), wk =   0.0468750
        k(   24) = (   0.0448123  -0.4929351   0.5825597), wk =   0.0468750
        k(   25) = (   0.1344368  -0.4033105   0.4929351), wk =   0.0468750
        k(   26) = (   0.2240614  -0.3136860   0.4033105), wk =   0.0468750
        k(   27) = (  -0.6721842   0.0448123   0.0448123), wk =   0.0234375
        k(   28) = (  -0.5825597   0.1344368  -0.0448123), wk =   0.0468750
        k(   29) = (  -0.4929351   0.2240614  -0.1344368), wk =   0.0468750
        k(   30) = (  -0.4929351   0.0448123   0.0448123), wk =   0.0234375
        k(   31) = (  -0.4033105   0.1344368  -0.0448123), wk =   0.0468750
        k(   32) = (  -0.3136860   0.0448123   0.0448123), wk =   0.0234375
        k(   33) = (   0.1344368   0.1344368   0.1344368), wk =   0.0078125
        k(   34) = (   0.2240614   0.2240614   0.0448123), wk =   0.0234375
        k(   35) = (   0.3136860   0.3136860  -0.0448123), wk =   0.0234375
        k(   36) = (  -0.3136860  -0.3136860   0.5825597), wk =   0.0234375
        k(   37) = (  -0.2240614  -0.2240614   0.4929351), wk =   0.0234375
        k(   38) = (  -0.1344368  -0.1344368   0.4033105), wk =   0.0234375
        k(   39) = (   0.3136860   0.1344368   0.1344368), wk =   0.0234375
        k(   40) = (   0.4033105   0.2240614   0.0448123), wk =   0.0468750
        k(   41) = (  -0.2240614  -0.4033105   0.6721842), wk =   0.0468750
        k(   42) = (  -0.1344368  -0.3136860   0.5825597), wk =   0.0468750
        k(   43) = (  -0.0448123  -0.2240614   0.4929351), wk =   0.0468750
        k(   44) = (   0.4929351   0.1344368   0.1344368), wk =   0.0234375
        k(   45) = (  -0.1344368  -0.4929351   0.7618088), wk =   0.0468750
        k(   46) = (  -0.0448123  -0.4033105   0.6721842), wk =   0.0468750
        k(   47) = (   0.0448123  -0.3136860   0.5825597), wk =   0.0468750
        k(   48) = (  -0.7618088   0.1344368   0.1344368), wk =   0.0234375
        k(   49) = (  -0.6721842   0.2240614   0.0448123), wk =   0.0468750
        k(   50) = (  -0.5825597   0.1344368   0.1344368), wk =   0.0234375
        k(   51) = (   0.2240614   0.2240614   0.2240614), wk =   0.0078125
        k(   52) = (   0.3136860   0.3136860   0.1344368), wk =   0.0234375
        k(   53) = (  -0.3136860  -0.3136860   0.7618088), wk =   0.0234375
        k(   54) = (  -0.2240614  -0.2240614   0.6721842), wk =   0.0234375
        k(   55) = (   0.4033105   0.2240614   0.2240614), wk =   0.0234375
        k(   56) = (  -0.2240614  -0.4033105   0.8514334), wk =   0.0468750
        k(   57) = (  -0.1344368  -0.3136860   0.7618088), wk =   0.0468750
        k(   58) = (  -0.8514334   0.2240614   0.2240614), wk =   0.0234375
        k(   59) = (   0.3136860   0.3136860   0.3136860), wk =   0.0078125
        k(   60) = (  -0.3136860  -0.3136860   0.9410579), wk =   0.0234375

     Dense  grid:     7391 G-vectors     FFT dimensions: (  27,  27,  27)

     Smooth grid:     2637 G-vectors     FFT dimensions: (  20,  20,  20)

     Estimated max dynamical RAM per process >      11.42 MB

     Estimated total dynamical RAM >      22.84 MB

     Initial potential from superposition of free atoms

     starting charge      10.9997, renormalised to      11.0000
     Starting wfcs are    6 randomized atomic wfcs +    4 random wfcs

     total cpu time spent up to now is        6.0 secs

     Self-consistent Calculation

     iteration #  1     ecut=    40.00 Ry     beta= 0.70
     Davidson diagonalization with overlap
     ethr =  1.00E-06,  avg # of iterations = 13.3

     total cpu time spent up to now is        6.8 secs

     total energy              =     -87.73230266 Ry
     estimated scf accuracy    <       0.24256806 Ry

     iteration #  2     ecut=    40.00 Ry     beta= 0.70
     Davidson diagonalization with overlap
     ethr =  2.21E-03,  avg # of iterations =  2.0

     total cpu time spent up to now is        7.0 secs

     total energy              =     -87.81270811 Ry
     estimated scf accuracy    <       0.18819096 Ry

     iteration #  3     ecut=    40.00 Ry     beta= 0.70
     Davidson diagonalization with overlap
     ethr =  1.71E-03,  avg # of iterations =  1.0

     total cpu time spent up to now is        7.2 secs

     total energy              =     -87.84319562 Ry
     estimated scf accuracy    <       0.00083402 Ry

     iteration #  4     ecut=    40.00 Ry     beta= 0.70
     Davidson diagonalization with overlap
     ethr =  7.58E-06,  avg # of iterations =  2.0

     total cpu time spent up to now is        7.5 secs

     total energy              =     -87.84352704 Ry
     estimated scf accuracy    <       0.00003001 Ry

     iteration #  5     ecut=    40.00 Ry     beta= 0.70
     Davidson diagonalization with overlap
     ethr =  2.73E-07,  avg # of iterations =  1.1

     total cpu time spent up to now is        7.7 secs

     total energy              =     -87.84352626 Ry
     estimated scf accuracy    <       0.00000575 Ry

     iteration #  6     ecut=    40.00 Ry     beta= 0.70
     Davidson diagonalization with overlap
     ethr =  5.22E-08,  avg # of iterations =  1.0

     total cpu time spent up to now is        7.9 secs

     total energy              =     -87.84352723 Ry
     estimated scf accuracy    <       0.00000003 Ry

     iteration #  7     ecut=    40.00 Ry     beta= 0.70
     Davidson diagonalization with overlap
     ethr =  3.03E-10,  avg # of iterations =  2.1

     total cpu time spent up to now is        8.2 secs

     total energy              =     -87.84352724 Ry
     estimated scf accuracy    <          1.4E-09 Ry

     iteration #  8     ecut=    40.00 Ry     beta= 0.70
     Davidson diagonalization with overlap
     ethr =  1.27E-11,  avg # of iterations =  1.4

     total cpu time spent up to now is        8.4 secs

     End of self-consistent calculation

          k = 0.0448 0.0448 0.0448 (   331 PWs)   bands (ev):

     5.2501  11.3208  11.3827  11.3827  12.2433  12.2433  37.9389  39.9560
    40.8852  40.8852

          k = 0.1344 0.1344-0.0448 (   321 PWs)   bands (ev):

     6.0189  11.1606  11.5125  11.5128  12.1286  12.3085  33.4843  36.3338
    40.7689  41.8709

          k = 0.2241 0.2241-0.1344 (   321 PWs)   bands (ev):

     7.7124  11.0583  11.4983  11.5562  12.2665  12.5942  26.8522  35.1830
    39.6203  40.6547

          k = 0.3137 0.3137-0.2241 (   326 PWs)   bands (ev):

     9.1087  11.3351  11.4114  11.9112  12.6720  13.2399  21.3231  34.9986
    38.0605  38.5419

          k =-0.3137-0.3137 0.4033 (   326 PWs)   bands (ev):

     9.3128  11.2657  11.3701  12.3927  12.8813  14.1325  19.0346  35.8298
    36.7953  37.3631

          k =-0.2241-0.2241 0.3137 (   325 PWs)   bands (ev):

     8.8038  11.3680  11.4565  11.4728  12.7340  12.7915  22.9962  36.2257
    36.9159  38.4330

          k =-0.1344-0.1344 0.2241 (   315 PWs)   bands (ev):

     7.0850  11.0330  11.5429  11.5781  12.2159  12.4202  28.9666  36.8128
    37.7153  41.3944

          k =-0.0448-0.0448 0.1344 (   325 PWs)   bands (ev):

     5.6393  11.2136  11.4692  11.4724  12.1428  12.2943  35.8280  38.4337
    38.7068  41.1760

          k = 0.2241 0.0448 0.0448 (   321 PWs)   bands (ev):

     6.3913  11.0038  11.6310  11.6469  11.9967  12.3886  33.7566  35.9690
    37.2093  39.4570

          k = 0.3137 0.1344-0.0448 (   321 PWs)   bands (ev):

     7.7512  10.7681  11.5044  11.8618  12.1765  12.6566  29.5418  32.3178
    36.7099  38.5270

          k = 0.4033 0.2241-0.1344 (   322 PWs)   bands (ev):

     9.3047  10.8601  11.2383  11.7671  12.7089  13.6264  23.5615  31.8204
    33.6554  37.9856

          k =-0.2241-0.4033 0.4929 (   323 PWs)   bands (ev):

     9.7301  10.9543  11.5601  11.6537  12.8505  15.7712  19.3010  31.3298
    32.6712  38.1132

          k =-0.1344-0.3137 0.4033 (   322 PWs)   bands (ev):

     9.5903  11.0654  11.2458  11.6909  12.6112  14.3855  21.8504  30.2698
    34.5561  39.2343

          k =-0.0448-0.2241 0.3137 (   319 PWs)   bands (ev):

     8.3441  10.8187  11.3723  11.8358  12.1202  13.0323  27.4441  30.3585
    37.4858  41.1619

          k = 0.0448-0.1344 0.2241 (   321 PWs)   bands (ev):

     6.7496  11.0006  11.5650  11.6540  12.0542  12.4452  31.3780  34.2142
    39.5342  41.3296

          k = 0.4033 0.0448 0.0448 (   319 PWs)   bands (ev):

     8.5379  10.4445  11.7307  12.1860  12.4434  12.6496  30.2168  31.8382
    32.2958  35.2139

          k = 0.4929 0.1344-0.0448 (   323 PWs)   bands (ev):

     9.4771  10.2743  11.6570  12.3998  12.7455  13.8650  26.7248  28.7975
    29.4850  36.4095

          k =-0.1344-0.4929 0.5826 (   323 PWs)   bands (ev):

    10.0169  10.3803  11.4118  12.2064  12.8902  16.8317  21.5291  26.3597
    29.8244  36.7808

          k =-0.0448-0.4033 0.4929 (   325 PWs)   bands (ev):

    10.3277  10.5693  11.0567  12.0687  12.6431  17.1031  21.3322  25.0166
    31.5321  37.8244

          k = 0.0448-0.3137 0.4033 (   322 PWs)   bands (ev):

     9.7690  10.8218  11.0134  11.9260  12.3655  14.4229  24.1131  27.2449
    34.2606  39.6834

          k = 0.1344-0.2241 0.3137 (   322 PWs)   bands (ev):

     8.5217  11.0165  11.3800  11.6129  12.4339  12.9333  25.0524  33.3736
    37.5231  39.1742

          k = 0.5826 0.0448 0.0448 (   324 PWs)   bands (ev):

     9.4335   9.9859  12.6308  12.7053  12.9108  14.6113  25.2046  27.9222
    29.2236  34.0511

          k =-0.0448-0.5826 0.6722 (   322 PWs)   bands (ev):

     9.6088   9.9971  12.3128  12.6843  12.9970  17.0453  22.9568  25.3938
    27.9731  35.6280

          k = 0.0448-0.4929 0.5826 (   326 PWs)   bands (ev):

    10.0275  10.2842  11.5511  12.3571  12.8692  18.8482  20.9772  23.7011
    29.3839  36.5654

          k = 0.1344-0.4033 0.4929 (   319 PWs)   bands (ev):

    10.0558  10.7157  11.2914  11.8685  12.7702  16.9038  19.6204  27.9237
    31.9037  37.9279

          k = 0.2241-0.3137 0.4033 (   327 PWs)   bands (ev):

     9.4132  11.1872  11.4800  11.8370  12.8122  14.2852  20.0566  33.6016
    35.1619  38.2959

          k =-0.6722 0.0448 0.0448 (   326 PWs)   bands (ev):

     9.4320   9.8804  12.8105  12.8434  13.0068  16.2025  22.7928  27.4034
    28.6584  33.8373

          k =-0.5826 0.1344-0.0448 (   325 PWs)   bands (ev):

     9.6264  10.0936  12.0505  12.6132  12.8973  15.3906  25.3974  25.9277
    28.4705  35.8822

          k =-0.4929 0.2241-0.1344 (   325 PWs)   bands (ev):

     9.8235  10.6014  11.2568  11.9842  12.8561  14.9587  22.3817  29.7384
    30.7211  37.2373

          k =-0.4929 0.0448 0.0448 (   323 PWs)   bands (ev):

     9.2521  10.1830  12.1807  12.4795  12.7843  13.1569  28.4694  28.9618
    30.3071  34.4945

          k =-0.4033 0.1344-0.0448 (   323 PWs)   bands (ev):

     8.8082  10.5118  11.4381  12.1205  12.4935  13.0129  27.9836  30.6737
    32.7240  37.2512

          k =-0.3137 0.0448 0.0448 (   320 PWs)   bands (ev):

     7.4297  10.7328  11.6781  11.8934  12.0674  12.5127  31.8715  33.7463
    35.6726  36.6881

          k = 0.1344 0.1344 0.1344 (   320 PWs)   bands (ev):

     6.3850  11.1375  11.5230  11.5230  12.2417  12.2417  31.0859  39.2366
    39.2949  39.2949

          k = 0.2241 0.2241 0.0448 (   319 PWs)   bands (ev):

     7.4315  10.9471  11.5058  11.7153  12.0181  12.6721  29.2651  32.1545
    41.0268  42.0855

          k = 0.3137 0.3137-0.0448 (   323 PWs)   bands (ev):

     9.0848  10.8475  11.2453  11.8076  12.1653  13.5744  25.6332  28.6416
    38.0696  38.7337

          k =-0.3137-0.3137 0.5826 (   326 PWs)   bands (ev):

     9.8298  10.9489  11.3659  11.7108  12.6533  15.4836  20.5017  28.9357
    34.9854  36.8748

          k =-0.2241-0.2241 0.4929 (   321 PWs)   bands (ev):

     9.7700  10.8236  11.3935  11.7610  12.9047  15.3595  20.4867  30.4094
    33.1641  36.0345

          k =-0.1344-0.1344 0.4033 (   322 PWs)   bands (ev):

     9.0044  10.6215  11.3537  11.8903  12.7858  13.1080  25.6203  32.7619
    32.9053  36.0500

          k = 0.3137 0.1344 0.1344 (   326 PWs)   bands (ev):

     8.0302  10.8495  11.4527  11.7008  12.4666  12.6148  27.1453  34.6166
    36.1390  37.8586

          k = 0.4033 0.2241 0.0448 (   319 PWs)   bands (ev):

     9.2742  10.6435  11.1825  12.0440  12.3898  13.6286  25.9172  28.8626
    33.3608  40.2710

          k =-0.2241-0.4033 0.6722 (   323 PWs)   bands (ev):

    10.2137  10.6720  10.8717  12.1164  12.6186  15.7937  22.8940  26.1864
    30.4304  41.0807

          k =-0.1344-0.3137 0.5826 (   321 PWs)   bands (ev):

    10.2630  10.5042  11.1309  12.0736  12.8370  17.7828  20.0353  27.2282
    28.5172  39.8966

          k =-0.0448-0.2241 0.4929 (   324 PWs)   bands (ev):

     9.8526  10.4570  11.1788  12.2834  12.6555  14.7439  24.6979  27.6784
    29.5371  39.4871

          k = 0.4929 0.1344 0.1344 (   322 PWs)   bands (ev):

     9.6230  10.3836  11.4912  12.1254  12.9018  14.2566  24.4020  29.1657
    31.2983  35.3394

          k =-0.1344-0.4929 0.7618 (   324 PWs)   bands (ev):

     9.9491  10.3073  11.4329  12.4306  12.8621  16.4569  23.8173  26.0026
    26.9784  38.9473

          k =-0.0448-0.4033 0.6722 (   321 PWs)   bands (ev):

    10.1573  10.5784  11.0646  12.2508  12.9923  19.7974  21.5092  24.0097
    25.2375  42.2303

          k = 0.0448-0.3137 0.5826 (   325 PWs)   bands (ev):

    10.2636  10.5835  10.9410  12.2284  12.8472  17.6942  22.0125  25.4480
    26.9843  42.1113

          k =-0.7618 0.1344 0.1344 (   322 PWs)   bands (ev):

     9.7648  10.0971  12.0311  12.5453  12.9220  17.7371  22.7611  23.4912
    29.7542  34.7561

          k =-0.6722 0.2241 0.0448 (   326 PWs)   bands (ev):

     9.9001  10.2310  11.6566  12.4577  12.9934  18.3138  23.0978  23.6363
    26.5162  38.6762

          k =-0.5826 0.1344 0.1344 (   326 PWs)   bands (ev):

     9.7778  10.1936  11.8118  12.3661  12.9431  15.9504  23.5134  25.7943
    30.2792  34.9404

          k = 0.2241 0.2241 0.2241 (   317 PWs)   bands (ev):

     8.2121  11.2793  11.4668  11.4668  12.5219  12.5219  24.7547  38.2122
    38.3089  38.3089

          k = 0.3137 0.3137 0.1344 (   319 PWs)   bands (ev):

     9.0891  11.2001  11.2894  11.5803  12.4326  13.4673  23.2886  31.6871
    38.3093  38.4846

          k =-0.3137-0.3137 0.7618 (   328 PWs)   bands (ev):

    10.1182  10.8315  10.9806  11.9257  12.4607  15.5384  22.5798  25.9558
    34.6059  36.8131

          k =-0.2241-0.2241 0.6722 (   321 PWs)   bands (ev):

    10.2007  10.4178  11.3321  12.1963  12.7309  18.6917  20.0954  24.1987
    31.7948  35.5415

          k = 0.4033 0.2241 0.2241 (   324 PWs)   bands (ev):

     9.3461  11.1341  11.4466  11.5760  12.8688  13.7778  21.5722  34.0986
    34.4978  36.6715

          k =-0.2241-0.4033 0.8514 (   323 PWs)   bands (ev):

     9.9806  10.7603  11.1998  11.8821  12.7724  15.8742  20.7424  29.1649
    30.7825  39.7753

          k =-0.1344-0.3137 0.7618 (   325 PWs)   bands (ev):

    10.3053  10.4862  11.0744  12.1952  12.8481  19.0735  20.4604  24.4048
    28.1192  39.8642

          k =-0.8514 0.2241 0.2241 (   322 PWs)   bands (ev):

    10.0612  10.5571  11.3517  11.9928  12.8425  17.2960  19.8057  26.9794
    32.2554  35.6939

          k = 0.3137 0.3137 0.3137 (   329 PWs)   bands (ev):

     9.1737  11.3376  11.3376  12.8309  12.8309  12.9823  19.8594  37.4087
    37.9775  37.9775

          k =-0.3137-0.3137 0.9411 (   326 PWs)   bands (ev):

     9.5365  11.1210  11.5030  11.8654  12.8158  15.1024  19.1621  32.3486
    35.7312  37.0278

     the Fermi energy is    14.6701 ev

!    total energy              =     -87.84352724 Ry
     estimated scf accuracy    <          3.1E-11 Ry
     smearing contrib. (-TS)   =       0.00009336 Ry
     internal energy E=F+TS    =     -87.84362060 Ry

     The total energy is F=E-TS. E is the sum of the following terms:
     one-electron contribution =      -9.85502185 Ry
     hartree contribution      =      18.76074268 Ry
     xc contribution           =     -14.06137201 Ry
     ewald contribution        =     -82.68796942 Ry

     convergence has been achieved in   8 iterations


     Computing stress (Cartesian axis) and pressure

          total   stress  (Ry/bohr**3)                   (kbar)     P=        0.50
   0.00000338   0.00000000   0.00000000            0.50        0.00        0.00
   0.00000000   0.00000338   0.00000000            0.00        0.50        0.00
   0.00000000   0.00000000   0.00000338            0.00        0.00        0.50

     Message from routine punch:
     Nothing written, as per user request (disk_io='none')

     init_run     :      0.82s CPU      0.89s WALL (       2 calls)
     electrons    :      6.16s CPU      6.67s WALL (       4 calls)
     update_pot   :      0.01s CPU      0.01s WALL (       2 calls)
     stress       :      0.75s CPU      0.75s WALL (       4 calls)

     Called by init_run:
     wfcinit      :      0.19s CPU      0.21s WALL (       2 calls)
     potinit      :      0.18s CPU      0.19s WALL (       2 calls)
     hinit0       :      0.40s CPU      0.42s WALL (       2 calls)

     Called by electrons:
     c_bands      :      4.98s CPU      5.39s WALL (      23 calls)
     sum_band     :      0.92s CPU      1.00s WALL (      23 calls)
     v_of_rho     :      0.02s CPU      0.03s WALL (      26 calls)
     newd         :      0.24s CPU      0.25s WALL (      26 calls)
     mix_rho      :      0.01s CPU      0.01s WALL (      23 calls)

     Called by c_bands:
     init_us_2    :      0.16s CPU      0.18s WALL (    3120 calls)
     cegterg      :      4.69s CPU      5.07s WALL (    1380 calls)

     Called by *egterg:
     cdiaghg      :      0.65s CPU      0.70s WALL (    4494 calls)
     h_psi        :      3.49s CPU      3.79s WALL (    4794 calls)
     s_psi        :      0.05s CPU      0.06s WALL (    4794 calls)
     g_psi        :      0.02s CPU      0.03s WALL (    3294 calls)

     Called by h_psi:
     h_psi:calbec :      0.17s CPU      0.19s WALL (    4794 calls)
     vloc_psi     :      3.19s CPU      3.47s WALL (    4794 calls)
     add_vuspsi   :      0.06s CPU      0.07s WALL (    4794 calls)

     General routines
     calbec       :      0.28s CPU      0.30s WALL (    9294 calls)
     fft          :      0.11s CPU      0.12s WALL (     159 calls)
     ffts         :      0.14s CPU      0.15s WALL (      49 calls)
     fftw         :      2.96s CPU      3.23s WALL (   88264 calls)
     interpolate  :      0.15s CPU      0.16s WALL (      26 calls)

     Parallel routines

     PWSCF        :      7.88s CPU      8.58s WALL


   This run was terminated on:  17:34:27  21Oct2025            

=------------------------------------------------------------------------------=
   JOB DONE.
=------------------------------------------------------------------------------=
