LAMMPS (22 Jul 2025 - Update 1)
Reading data file ...
  orthogonal box = (0 0 0) to (8.7451919 8.7451919 26.735138)
  1 by 1 by 1 MPI processor grid
  reading atoms ...
  117 atoms
  read_data CPU = 0.001 seconds
WARNING: No fixes with time integration, atoms won't move
For more information see https://docs.lammps.org/err0028 (../verlet.cpp:60)
Generated 0 of 0 mixed pair_coeff terms from geometric mixing rule
Neighbor list info ...
  update: every = 1 steps, delay = 0 steps, check = yes
  max neighbors/atom: 2000, page size: 100000
  master list distance cutoff = 6.5
  ghost atom cutoff = 6.5
  binsize = 3.25, bins = 3 3 9
  1 neighbor lists, perpetual/occasional/extra = 1 0 0
  (1) pair lj/cut, perpetual
      attributes: half, newton on
      pair build: half/bin/atomonly/newton
      stencil: half/bin/3d
      bin: standard
Setting up Verlet run ...
  Unit style    : metal
  Current step  : 0
  Time step     : 0.001
Per MPI rank memory allocation (min/avg/max) = 3.076 | 3.076 | 3.076 Mbytes
   Step         PotEng           Lx             Ly             Lz           Press           Pxx            Pyy            Pzz      
         0  -292.44111      8.7451919      8.7451919      26.735138     -0.13346541    -1897.9367     -1897.9367      3795.473     
Loop time of 1.757e-06 on 1 procs for 0 steps with 117 atoms

0.0% CPU use with 1 MPI tasks x no OpenMP threads

MPI task timing breakdown:
Section |  min time  |  avg time  |  max time  |%varavg| %total
---------------------------------------------------------------
Pair    | 0          | 0          | 0          |   0.0 |  0.00
Neigh   | 0          | 0          | 0          |   0.0 |  0.00
Comm    | 0          | 0          | 0          |   0.0 |  0.00
Output  | 0          | 0          | 0          |   0.0 |  0.00
Modify  | 0          | 0          | 0          |   0.0 |  0.00
Other   |            | 1.757e-06  |            |       |100.00

Nlocal:            117 ave         117 max         117 min
Histogram: 1 0 0 0 0 0 0 0 0 0
Nghost:            625 ave         625 max         625 min
Histogram: 1 0 0 0 0 0 0 0 0 0
Neighs:           2889 ave        2889 max        2889 min
Histogram: 1 0 0 0 0 0 0 0 0 0

Total # of neighbors = 2889
Ave neighs/atom = 24.692308
Neighbor list builds = 0
Dangerous builds = 0
Generated 0 of 0 mixed pair_coeff terms from geometric mixing rule
Setting up cg style minimization ...
  Unit style    : metal
  Current step  : 0
WARNING: Energy due to 3 extra global DOFs will be included in minimizer energies
 (../min.cpp:222)
Per MPI rank memory allocation (min/avg/max) = 4.201 | 4.201 | 4.201 Mbytes
   Step         PotEng           Lx             Ly             Lz           Press           Pxx            Pyy            Pzz      
         0  -292.44111      8.7451919      8.7451919      26.735138     -0.13346541    -1897.9367     -1897.9367      3795.473     
        80  -292.46944      8.7324955      8.7324955      26.735138      81.972644      2.9862011      2.9862011      239.94553    
Loop time of 0.00849866 on 1 procs for 80 steps with 117 atoms

91.6% CPU use with 1 MPI tasks x no OpenMP threads

Minimization stats:
  Stopping criterion = energy tolerance
  Energy initial, next-to-last, final = 
     -292.441112718569  -292.469437510662   -292.46943753142
  Force two-norm initial, final = 3.513803 0.0084312143
  Force max component initial, final = 2.4221023 0.0038053871
  Final line search alpha, max atom move = 0.47477332 0.0018066963
  Iterations, force evaluations = 80 160

MPI task timing breakdown:
Section |  min time  |  avg time  |  max time  |%varavg| %total
---------------------------------------------------------------
Pair    | 0.0057437  | 0.0057437  | 0.0057437  |   0.0 | 67.58
Neigh   | 0          | 0          | 0          |   0.0 |  0.00
Comm    | 0.00046415 | 0.00046415 | 0.00046415 |   0.0 |  5.46
Output  | 0          | 0          | 0          |   0.0 |  0.00
Modify  | 0          | 0          | 0          |   0.0 |  0.00
Other   |            | 0.002291   |            |       | 26.95

Nlocal:            117 ave         117 max         117 min
Histogram: 1 0 0 0 0 0 0 0 0 0
Nghost:            625 ave         625 max         625 min
Histogram: 1 0 0 0 0 0 0 0 0 0
Neighs:           2889 ave        2889 max        2889 min
Histogram: 1 0 0 0 0 0 0 0 0 0

Total # of neighbors = 2889
Ave neighs/atom = 24.692308
Neighbor list builds = 0
Dangerous builds = 0
Total energy (eV) = -292.46943753142
Number of atoms = 117
Lattice constant (Angstoms) = 8.73249553346926
Total wall time: 0:00:00
