
     Program PWSCF v.7.4.1 starts on 20Oct2025 at 18:37:12 

     This program is part of the open-source Quantum ESPRESSO suite
     for quantum simulation of materials; please cite
         "P. Giannozzi et al., J. Phys.:Condens. Matter 21 395502 (2009);
         "P. Giannozzi et al., J. Phys.:Condens. Matter 29 465901 (2017);
         "P. Giannozzi et al., J. Chem. Phys. 152 154105 (2020);
          URL http://www.quantum-espresso.org", 
     in publications or presentations arising from this work. More details at
     http://www.quantum-espresso.org/quote

     Parallel version (MPI), running on     2 processors

     MPI processes distributed on     1 nodes
     297 MiB available memory on the printing compute node when the environment starts

     Waiting for input...
     Reading input from standard input

     Current dimensions of program PWSCF are:
     Max number of different atomic species (ntypx) = 10
     Max number of k-points (npk) =  40000
     Max angular momentum in pseudopotentials (lmaxx) =  4
     file Fe.pbe-nd-rrkjus.UPF: wavefunction(s)  4S renormalized
     Message from routine find_sym:
     Not a group! Trying with lower acceptance parameter...
     Message from routine find_sym:
     Symmetry operations form a group
     Message from routine setup:
     using ibrav=0 with symmetry is DISCOURAGED, use correct ibrav instead

     R & G space division:  proc/nbgrp/npool/nimage =       2
     Subspace diagonalization in iterative solution of the eigenvalue problem:
     a serial algorithm will be used


     Parallelization info
     --------------------
     sticks:   dense  smooth     PW     G-vecs:    dense   smooth      PW
     Min         273     105     36                 7823     1983     380
     Max         274     106     37                 7826     1986     381
     Sum         547     211     73                15649     3969     761

     Using Slab Decomposition



     bravais-lattice index     =            0
     lattice parameter (alat)  =       5.1023  a.u.
     unit-cell volume          =     178.9386 (a.u.)^3
     number of atoms/cell      =            2
     number of atomic types    =            1
     number of electrons       =        16.00
     number of Kohn-Sham states=           12
     kinetic-energy cutoff     =      30.0000  Ry
     charge density cutoff     =     300.0000  Ry
     scf convergence threshold =      1.0E-07
     mixing beta               =       0.5000
     number of iterations used =            8  plain     mixing
     energy convergence thresh.=      1.0E-04
     force convergence thresh. =      1.0E-03
     press convergence thresh. =      5.0E-01
     Exchange-correlation=  SLA  PW   PBE  PBE
                           (   1   4   3   4   0   0   0)
     nstep                     =           50


     celldm(1)=   5.102261  celldm(2)=   0.000000  celldm(3)=   0.000000
     celldm(4)=   0.000000  celldm(5)=   0.000000  celldm(6)=   0.000000

     crystal axes: (cart. coord. in units of alat)
               a(1) = (   1.000000   0.000000   0.000000 )  
               a(2) = (  -0.500000   0.866025   0.000000 )  
               a(3) = (   0.000000   0.000000   1.555556 )  

     reciprocal axes: (cart. coord. in units 2 pi/alat)
               b(1) = (  1.000000  0.577350 -0.000000 )  
               b(2) = (  0.000000  1.154701  0.000000 )  
               b(3) = (  0.000000 -0.000000  0.642857 )  


     PseudoPot. # 1 for Fe read from file:
     /home/bond/Software/QE/qe-7.4.1/pseudo/Fe.pbe-nd-rrkjus.UPF
     MD5 check sum: 398036227a04b607635f6f5e8dfd8242
     Pseudo is Ultrasoft + core correction, Zval =  8.0
     Generated by new atomic code, or converted to UPF format
     Using radial grid of  957 points,  6 beta functions with: 
                l(1) =   0
                l(2) =   0
                l(3) =   1
                l(4) =   1
                l(5) =   2
                l(6) =   2
     Q(r) pseudized with 0 coefficients 


     atomic species   valence    mass     pseudopotential
     Fe                8.00    55.84500     Fe( 1.00)

     Starting magnetic structure 
     atomic species   magnetization
     Fe              0.700

      4 Sym. Ops. (no inversion) found



   Cartesian axes

     site n.     atom                  positions (alat units)
         1        Fe     tau(   1) = (   0.0000000   0.0000000   0.0000000  )
         2        Fe     tau(   2) = (   0.0000000   0.5773519   0.7777778  )

     number of k points=   365  Methfessel-Paxton smearing, width (Ry)=  0.0200

     Number of k-points >= 100: set verbosity='high' to print them.

     Dense  grid:    15649 G-vectors     FFT dimensions: (  30,  30,  45)

     Smooth grid:     3969 G-vectors     FFT dimensions: (  18,  18,  27)

     Estimated max dynamical RAM per process >      68.10 MB

     Estimated total dynamical RAM >     136.21 MB

     Check: negative core charge=   -0.000008
     Generating pointlists ...
     new r_m :   0.3996 (alat units)  2.0387 (a.u.) for type    1

     Initial potential from superposition of free atoms

     starting charge      15.9987, renormalised to      16.0000
     Starting wfcs are   12 randomized atomic wfcs

     total cpu time spent up to now is        2.1 secs

     Self-consistent Calculation

     iteration #  1     ecut=    30.00 Ry     beta= 0.50
     Davidson diagonalization with overlap
     ethr =  1.00E-02,  avg # of iterations =  3.8

     total cpu time spent up to now is        6.6 secs

     total energy              =    -111.34144678 Ry
     estimated scf accuracy    <       0.57313521 Ry

     total magnetization       =     6.85 Bohr mag/cell
     absolute magnetization    =     6.85 Bohr mag/cell

     iteration #  2     ecut=    30.00 Ry     beta= 0.50
     Davidson diagonalization with overlap
     ethr =  3.58E-03,  avg # of iterations =  2.1

     total cpu time spent up to now is       10.6 secs

     total energy              =    -111.52856600 Ry
     estimated scf accuracy    <       0.06252806 Ry

     total magnetization       =     6.13 Bohr mag/cell
     absolute magnetization    =     6.14 Bohr mag/cell

     iteration #  3     ecut=    30.00 Ry     beta= 0.50
     Davidson diagonalization with overlap
     ethr =  3.91E-04,  avg # of iterations =  1.6

     total cpu time spent up to now is       14.0 secs

     total energy              =    -111.55948096 Ry
     estimated scf accuracy    <       0.01160639 Ry

     total magnetization       =     6.03 Bohr mag/cell
     absolute magnetization    =     6.08 Bohr mag/cell

     iteration #  4     ecut=    30.00 Ry     beta= 0.50
     Davidson diagonalization with overlap
     ethr =  7.25E-05,  avg # of iterations =  2.5

     total cpu time spent up to now is       18.2 secs

     total energy              =    -111.55592741 Ry
     estimated scf accuracy    <       0.27972524 Ry

     total magnetization       =     5.61 Bohr mag/cell
     absolute magnetization    =     5.81 Bohr mag/cell

     iteration #  5     ecut=    30.00 Ry     beta= 0.50
     Davidson diagonalization with overlap
     ethr =  7.25E-05,  avg # of iterations =  1.7

     total cpu time spent up to now is       21.6 secs

     total energy              =    -111.56885038 Ry
     estimated scf accuracy    <       0.00141372 Ry

     total magnetization       =     5.58 Bohr mag/cell
     absolute magnetization    =     5.81 Bohr mag/cell

     iteration #  6     ecut=    30.00 Ry     beta= 0.50
     Davidson diagonalization with overlap
     ethr =  8.84E-06,  avg # of iterations =  2.3

     total cpu time spent up to now is       25.6 secs

     total energy              =    -111.56929501 Ry
     estimated scf accuracy    <       0.00019053 Ry

     total magnetization       =     5.56 Bohr mag/cell
     absolute magnetization    =     5.81 Bohr mag/cell

     iteration #  7     ecut=    30.00 Ry     beta= 0.50
     Davidson diagonalization with overlap
     ethr =  1.19E-06,  avg # of iterations =  3.2

     total cpu time spent up to now is       30.0 secs

     total energy              =    -111.56938861 Ry
     estimated scf accuracy    <       0.00014988 Ry

     total magnetization       =     5.55 Bohr mag/cell
     absolute magnetization    =     5.81 Bohr mag/cell

     iteration #  8     ecut=    30.00 Ry     beta= 0.50
     Davidson diagonalization with overlap
     ethr =  9.37E-07,  avg # of iterations =  1.6

     total cpu time spent up to now is       33.5 secs

     total energy              =    -111.56941193 Ry
     estimated scf accuracy    <       0.00001846 Ry

     total magnetization       =     5.54 Bohr mag/cell
     absolute magnetization    =     5.81 Bohr mag/cell

     iteration #  9     ecut=    30.00 Ry     beta= 0.50
     Davidson diagonalization with overlap
     ethr =  1.15E-07,  avg # of iterations =  4.6

     total cpu time spent up to now is       38.9 secs

     total energy              =    -111.56942338 Ry
     estimated scf accuracy    <       0.00000303 Ry

     total magnetization       =     5.54 Bohr mag/cell
     absolute magnetization    =     5.82 Bohr mag/cell

     iteration # 10     ecut=    30.00 Ry     beta= 0.50
     Davidson diagonalization with overlap
     ethr =  1.89E-08,  avg # of iterations =  5.2

     total cpu time spent up to now is       44.8 secs

     total energy              =    -111.56942569 Ry
     estimated scf accuracy    <       0.00000286 Ry

     total magnetization       =     5.54 Bohr mag/cell
     absolute magnetization    =     5.82 Bohr mag/cell

     iteration # 11     ecut=    30.00 Ry     beta= 0.50
     Davidson diagonalization with overlap
     ethr =  1.79E-08,  avg # of iterations =  1.5

     total cpu time spent up to now is       48.2 secs

     total energy              =    -111.56942601 Ry
     estimated scf accuracy    <       0.00000041 Ry

     total magnetization       =     5.54 Bohr mag/cell
     absolute magnetization    =     5.82 Bohr mag/cell

     iteration # 12     ecut=    30.00 Ry     beta= 0.50
     Davidson diagonalization with overlap
     ethr =  2.54E-09,  avg # of iterations =  4.3

     Magnetic moment per site  (integrated on atomic sphere of radius R)
     atom   1 (R=0.400)  charge=  6.6259  magn=  2.8282
     atom   2 (R=0.400)  charge=  6.6249  magn=  2.8287

     total cpu time spent up to now is       53.1 secs

     End of self-consistent calculation

     Number of k-points >= 100: set verbosity='high' to print the bands.

     the Fermi energy is    11.5939 ev

!    total energy              =    -111.56942621 Ry
     estimated scf accuracy    <       0.00000004 Ry
     smearing contrib. (-TS)   =       0.00002587 Ry
     internal energy E=F+TS    =    -111.56945208 Ry

     The total energy is F=E-TS. E is the sum of the following terms:
     one-electron contribution =       9.10960981 Ry
     hartree contribution      =      14.78547438 Ry
     xc contribution           =     -52.83617221 Ry
     ewald contribution        =     -82.62836405 Ry

     total magnetization       =     5.54 Bohr mag/cell
     absolute magnetization    =     5.82 Bohr mag/cell

     convergence has been achieved in  12 iterations

     Forces acting on atoms (cartesian axes, Ry/au):

     atom    1 type  1   force =     0.00000000   -0.00000027    0.00000000
     atom    2 type  1   force =     0.00000000    0.00000027    0.00000000

     Total force =     0.000000     Total SCF correction =     0.000001
     SCF correction compared to forces is large: reduce conv_thr to get better values


     Computing stress (Cartesian axis) and pressure

          total   stress  (Ry/bohr**3)                   (kbar)     P=     -102.62
  -0.00093757  -0.00000000   0.00000000         -137.92       -0.00        0.00
  -0.00000000  -0.00093759   0.00000000           -0.00     -137.92        0.00
   0.00000000   0.00000000  -0.00021765            0.00        0.00      -32.02


     BFGS Geometry Optimization
     Energy error            =      8.5E-03 Ry
     Gradient error          =      2.7E-07 Ry/Bohr
     Cell gradient error     =      1.4E+02 kbar

     number of scf cycles    =   1
     number of bfgs steps    =   0

     enthalpy           new  =    -111.5694262114 Ry

     new trust radius        =       0.0627095063 bohr
     new conv_thr            =       0.0000001000 Ry

     new unit-cell volume =    169.71992 a.u.^3 (    25.14990 Ang^3 )
     density =      7.37441 g/cm^3

CELL_PARAMETERS (angstrom)
   2.636714163  -0.000000000   0.000000000
  -1.318357081   2.283460363   0.000000000
   0.000000000   0.000000000   4.177146370

ATOMIC_POSITIONS (angstrom)
Fe               0.0000000000       -0.0000001412        0.0000000000
Fe               0.0000000000        1.5223112228        2.0885731849


     Message from routine punch:
     Nothing written, as per user request (disk_io='none')
     NEW-OLD atomic charge density approx. for the potential
     New effective cutoffs (rho, wfc):  314.42   31.45

     Check: negative core charge=   -0.000005
     Generating pointlists ...
     new r_m :   0.3949 (alat units)  2.0146 (a.u.) for type    1

     total cpu time spent up to now is       54.6 secs

     Self-consistent Calculation

     iteration #  1     ecut=    30.00 Ry     beta= 0.50
     Davidson diagonalization with overlap
     ethr =  1.00E-06,  avg # of iterations =  6.3

     total cpu time spent up to now is       63.1 secs

     total energy              =    -111.57519247 Ry
     estimated scf accuracy    <       0.00037045 Ry

     total magnetization       =     5.48 Bohr mag/cell
     absolute magnetization    =     5.75 Bohr mag/cell

     iteration #  2     ecut=    30.00 Ry     beta= 0.50
     Davidson diagonalization with overlap
     ethr =  2.32E-06,  avg # of iterations =  1.2

     total cpu time spent up to now is       66.3 secs

     total energy              =    -111.57514125 Ry
     estimated scf accuracy    <       0.00055801 Ry

     total magnetization       =     5.48 Bohr mag/cell
     absolute magnetization    =     5.73 Bohr mag/cell

     iteration #  3     ecut=    30.00 Ry     beta= 0.50
     Davidson diagonalization with overlap
     ethr =  2.32E-06,  avg # of iterations =  1.3

     total cpu time spent up to now is       69.6 secs

     total energy              =    -111.57520528 Ry
     estimated scf accuracy    <       0.00204379 Ry

     total magnetization       =     5.47 Bohr mag/cell
     absolute magnetization    =     5.73 Bohr mag/cell

     iteration #  4     ecut=    30.00 Ry     beta= 0.50
     Davidson diagonalization with overlap
     ethr =  2.32E-06,  avg # of iterations =  1.2

     total cpu time spent up to now is       72.8 secs

     total energy              =    -111.57533334 Ry
     estimated scf accuracy    <       0.00002718 Ry

     total magnetization       =     5.46 Bohr mag/cell
     absolute magnetization    =     5.71 Bohr mag/cell

     iteration #  5     ecut=    30.00 Ry     beta= 0.50
     Davidson diagonalization with overlap
     ethr =  1.70E-07,  avg # of iterations =  2.2

     total cpu time spent up to now is       76.7 secs

     total energy              =    -111.57534498 Ry
     estimated scf accuracy    <       0.00000249 Ry

     total magnetization       =     5.46 Bohr mag/cell
     absolute magnetization    =     5.70 Bohr mag/cell

     iteration #  6     ecut=    30.00 Ry     beta= 0.50
     Davidson diagonalization with overlap
     ethr =  1.56E-08,  avg # of iterations =  3.5

     total cpu time spent up to now is       81.4 secs

     total energy              =    -111.57534714 Ry
     estimated scf accuracy    <       0.00000090 Ry

     total magnetization       =     5.46 Bohr mag/cell
     absolute magnetization    =     5.70 Bohr mag/cell

     iteration #  7     ecut=    30.00 Ry     beta= 0.50
     Davidson diagonalization with overlap
     ethr =  5.62E-09,  avg # of iterations =  3.0

     total cpu time spent up to now is       85.8 secs

     total energy              =    -111.57534752 Ry
     estimated scf accuracy    <       0.00000012 Ry

     total magnetization       =     5.46 Bohr mag/cell
     absolute magnetization    =     5.70 Bohr mag/cell

     iteration #  8     ecut=    30.00 Ry     beta= 0.50
     Davidson diagonalization with overlap
     ethr =  7.63E-10,  avg # of iterations =  4.9

     Magnetic moment per site  (integrated on atomic sphere of radius R)
     atom   1 (R=0.395)  charge=  6.6243  magn=  2.7746
     atom   2 (R=0.395)  charge=  6.6237  magn=  2.7746

     total cpu time spent up to now is       91.1 secs

     End of self-consistent calculation

     Number of k-points >= 100: set verbosity='high' to print the bands.

     the Fermi energy is    12.3396 ev

!    total energy              =    -111.57534764 Ry
     estimated scf accuracy    <          8.9E-09 Ry
     smearing contrib. (-TS)   =      -0.00018355 Ry
     internal energy E=F+TS    =    -111.57516409 Ry

     The total energy is F=E-TS. E is the sum of the following terms:
     one-electron contribution =      11.23375446 Ry
     hartree contribution      =      14.19437266 Ry
     xc contribution           =     -52.88868192 Ry
     ewald contribution        =     -84.11460930 Ry

     total magnetization       =     5.46 Bohr mag/cell
     absolute magnetization    =     5.70 Bohr mag/cell

     convergence has been achieved in   8 iterations

     Forces acting on atoms (cartesian axes, Ry/au):

     atom    1 type  1   force =    -0.00000000   -0.00000041    0.00000000
     atom    2 type  1   force =     0.00000000    0.00000041    0.00000000

     Total force =     0.000001     Total SCF correction =     0.000000
     SCF correction compared to forces is large: reduce conv_thr to get better values


     Computing stress (Cartesian axis) and pressure

          total   stress  (Ry/bohr**3)                   (kbar)     P=      -34.22
  -0.00048539  -0.00000000   0.00000000          -71.40       -0.00        0.00
  -0.00000000  -0.00048541   0.00000000           -0.00      -71.41        0.00
   0.00000000   0.00000000   0.00027290            0.00        0.00       40.15

     Energy error            =      5.9E-03 Ry
     Gradient error          =      4.1E-07 Ry/Bohr
     Cell gradient error     =      7.1E+01 kbar

     number of scf cycles    =   2
     number of bfgs steps    =   1

     enthalpy           old  =    -111.5694262114 Ry
     enthalpy           new  =    -111.5753476386 Ry

     CASE: enthalpy          _new < enthalpy          _old

     new trust radius        =       0.0737567960 bohr
     new conv_thr            =       0.0000000010 Ry

     new unit-cell volume =    161.96226 a.u.^3 (    24.00033 Ang^3 )
     density =      7.72763 g/cm^3

CELL_PARAMETERS (angstrom)
   2.562077427  -0.000000000   0.000000000
  -1.281038713   2.218820696   0.000000000
   0.000000000   0.000000000   4.221849690

ATOMIC_POSITIONS (angstrom)
Fe               0.0000000000       -0.0000005420       -0.0000000000
Fe               0.0000000000        1.4792183939        2.1109248452


     Message from routine punch:
     Nothing written, as per user request (disk_io='none')
     NEW-OLD atomic charge density approx. for the potential
     New effective cutoffs (rho, wfc):  332.96   33.31

     Check: negative core charge=   -0.000003
     Generating pointlists ...

     total cpu time spent up to now is       92.7 secs

     Self-consistent Calculation

     iteration #  1     ecut=    30.00 Ry     beta= 0.50
     Davidson diagonalization with overlap
     ethr =  1.00E-06,  avg # of iterations =  7.2

     total cpu time spent up to now is      101.5 secs

     total energy              =    -111.57847447 Ry
     estimated scf accuracy    <       0.00089682 Ry

     total magnetization       =     5.33 Bohr mag/cell
     absolute magnetization    =     5.57 Bohr mag/cell

     iteration #  2     ecut=    30.00 Ry     beta= 0.50
     Davidson diagonalization with overlap
     ethr =  5.61E-06,  avg # of iterations =  1.0

     total cpu time spent up to now is      104.7 secs

     total energy              =    -111.57875507 Ry
     estimated scf accuracy    <       0.00035599 Ry

     total magnetization       =     5.30 Bohr mag/cell
     absolute magnetization    =     5.54 Bohr mag/cell

     iteration #  3     ecut=    30.00 Ry     beta= 0.50
     Davidson diagonalization with overlap
     ethr =  2.22E-06,  avg # of iterations =  1.8

     total cpu time spent up to now is      108.3 secs

     total energy              =    -111.57869188 Ry
     estimated scf accuracy    <       0.00173617 Ry

     total magnetization       =     5.26 Bohr mag/cell
     absolute magnetization    =     5.51 Bohr mag/cell

     iteration #  4     ecut=    30.00 Ry     beta= 0.50
     Davidson diagonalization with overlap
     ethr =  2.22E-06,  avg # of iterations =  1.3

     total cpu time spent up to now is      111.6 secs

     total energy              =    -111.57888249 Ry
     estimated scf accuracy    <       0.00055870 Ry

     total magnetization       =     5.26 Bohr mag/cell
     absolute magnetization    =     5.50 Bohr mag/cell

     iteration #  5     ecut=    30.00 Ry     beta= 0.50
     Davidson diagonalization with overlap
     ethr =  2.22E-06,  avg # of iterations =  1.0

     total cpu time spent up to now is      114.8 secs

     total energy              =    -111.57893572 Ry
     estimated scf accuracy    <       0.00000731 Ry

     total magnetization       =     5.24 Bohr mag/cell
     absolute magnetization    =     5.48 Bohr mag/cell

     iteration #  6     ecut=    30.00 Ry     beta= 0.50
     Davidson diagonalization with overlap
     ethr =  4.57E-08,  avg # of iterations =  3.6

     total cpu time spent up to now is      119.4 secs

     total energy              =    -111.57894363 Ry
     estimated scf accuracy    <       0.00000113 Ry

     total magnetization       =     5.23 Bohr mag/cell
     absolute magnetization    =     5.47 Bohr mag/cell

     iteration #  7     ecut=    30.00 Ry     beta= 0.50
     Davidson diagonalization with overlap
     ethr =  7.06E-09,  avg # of iterations =  4.0

     total cpu time spent up to now is      124.3 secs

     total energy              =    -111.57894462 Ry
     estimated scf accuracy    <       0.00000030 Ry

     total magnetization       =     5.23 Bohr mag/cell
     absolute magnetization    =     5.47 Bohr mag/cell

     iteration #  8     ecut=    30.00 Ry     beta= 0.50
     Davidson diagonalization with overlap
     ethr =  1.89E-09,  avg # of iterations =  3.8

     total cpu time spent up to now is      128.7 secs

     total energy              =    -111.57894476 Ry
     estimated scf accuracy    <          6.8E-09 Ry

     total magnetization       =     5.23 Bohr mag/cell
     absolute magnetization    =     5.47 Bohr mag/cell

     iteration #  9     ecut=    30.00 Ry     beta= 0.50
     Davidson diagonalization with overlap
     ethr =  4.25E-11,  avg # of iterations =  8.4

     Magnetic moment per site  (integrated on atomic sphere of radius R)
     atom   1 (R=0.395)  charge=  6.6854  magn=  2.6649
     atom   2 (R=0.395)  charge=  6.6846  magn=  2.6649

     total cpu time spent up to now is      137.4 secs

     End of self-consistent calculation

     Number of k-points >= 100: set verbosity='high' to print the bands.

     the Fermi energy is    13.0051 ev

!    total energy              =    -111.57894481 Ry
     estimated scf accuracy    <          3.6E-10 Ry
     smearing contrib. (-TS)   =      -0.00023969 Ry
     internal energy E=F+TS    =    -111.57870512 Ry

     The total energy is F=E-TS. E is the sum of the following terms:
     one-electron contribution =      13.11233393 Ry
     hartree contribution      =      13.68400489 Ry
     xc contribution           =     -52.92718491 Ry
     ewald contribution        =     -85.44785904 Ry

     total magnetization       =     5.23 Bohr mag/cell
     absolute magnetization    =     5.47 Bohr mag/cell

     convergence has been achieved in   9 iterations

     Forces acting on atoms (cartesian axes, Ry/au):

     atom    1 type  1   force =    -0.00000000   -0.00000087    0.00000000
     atom    2 type  1   force =     0.00000000    0.00000087   -0.00000000

     Total force =     0.000001     Total SCF correction =     0.000000
     SCF correction compared to forces is large: reduce conv_thr to get better values


     Computing stress (Cartesian axis) and pressure

          total   stress  (Ry/bohr**3)                   (kbar)     P=       21.24
  -0.00009203  -0.00000000  -0.00000000          -13.54       -0.00       -0.00
   0.00000000  -0.00009206  -0.00000000            0.00      -13.54       -0.00
  -0.00000000  -0.00000000   0.00061720           -0.00       -0.00       90.79

     Energy error            =      3.6E-03 Ry
     Gradient error          =      8.7E-07 Ry/Bohr
     Cell gradient error     =      9.1E+01 kbar

     number of scf cycles    =   3
     number of bfgs steps    =   2

     enthalpy           old  =    -111.5753476386 Ry
     enthalpy           new  =    -111.5789448119 Ry

     CASE: enthalpy          _new < enthalpy          _old

     new trust radius        =       0.0635271403 bohr
     new conv_thr            =       0.0000000010 Ry

     new unit-cell volume =    157.81592 a.u.^3 (    23.38591 Ang^3 )
     density =      7.93066 g/cm^3

CELL_PARAMETERS (angstrom)
   2.498136808  -0.000000000   0.000000000
  -1.249068404   2.163441760   0.000000000
   0.000000000   0.000000000   4.327058600

ATOMIC_POSITIONS (angstrom)
Fe               0.0000000000       -0.0000013951       -0.0000000000
Fe               0.0000000000        1.4422998553        2.1635293001


     Message from routine punch:
     Nothing written, as per user request (disk_io='none')
     NEW-OLD atomic charge density approx. for the potential
     New effective cutoffs (rho, wfc):  350.16   35.03

     Check: negative core charge=   -0.000002
     Generating pointlists ...
     new r_m :   0.3817 (alat units)  1.9473 (a.u.) for type    1

     total cpu time spent up to now is      139.0 secs

     Self-consistent Calculation

     iteration #  1     ecut=    30.00 Ry     beta= 0.50
     Davidson diagonalization with overlap
     ethr =  1.00E-06,  avg # of iterations =  7.2

     total cpu time spent up to now is      148.0 secs

     total energy              =    -111.57971498 Ry
     estimated scf accuracy    <       0.00066838 Ry

     total magnetization       =     5.18 Bohr mag/cell
     absolute magnetization    =     5.41 Bohr mag/cell

     iteration #  2     ecut=    30.00 Ry     beta= 0.50
     Davidson diagonalization with overlap
     ethr =  4.18E-06,  avg # of iterations =  1.0

     total cpu time spent up to now is      151.2 secs

     total energy              =    -111.57983455 Ry
     estimated scf accuracy    <       0.00016533 Ry

     total magnetization       =     5.19 Bohr mag/cell
     absolute magnetization    =     5.41 Bohr mag/cell

     iteration #  3     ecut=    30.00 Ry     beta= 0.50
     Davidson diagonalization with overlap
     ethr =  1.03E-06,  avg # of iterations =  1.9

     total cpu time spent up to now is      154.8 secs

     total energy              =    -111.57983146 Ry
     estimated scf accuracy    <       0.00016683 Ry

     total magnetization       =     5.19 Bohr mag/cell
     absolute magnetization    =     5.40 Bohr mag/cell

     iteration #  4     ecut=    30.00 Ry     beta= 0.50
     Davidson diagonalization with overlap
     ethr =  1.03E-06,  avg # of iterations =  1.6

     total cpu time spent up to now is      158.1 secs

     total energy              =    -111.57982721 Ry
     estimated scf accuracy    <       0.00115174 Ry

     total magnetization       =     5.19 Bohr mag/cell
     absolute magnetization    =     5.40 Bohr mag/cell

     iteration #  5     ecut=    30.00 Ry     beta= 0.50
     Davidson diagonalization with overlap
     ethr =  1.03E-06,  avg # of iterations =  1.0

     total cpu time spent up to now is      161.3 secs

     total energy              =    -111.57989403 Ry
     estimated scf accuracy    <       0.00000373 Ry

     total magnetization       =     5.19 Bohr mag/cell
     absolute magnetization    =     5.40 Bohr mag/cell

     iteration #  6     ecut=    30.00 Ry     beta= 0.50
     Davidson diagonalization with overlap
     ethr =  2.33E-08,  avg # of iterations =  4.2

     total cpu time spent up to now is      166.4 secs

     total energy              =    -111.57989827 Ry
     estimated scf accuracy    <       0.00000116 Ry

     total magnetization       =     5.19 Bohr mag/cell
     absolute magnetization    =     5.40 Bohr mag/cell

     iteration #  7     ecut=    30.00 Ry     beta= 0.50
     Davidson diagonalization with overlap
     ethr =  7.23E-09,  avg # of iterations =  3.0

     total cpu time spent up to now is      170.3 secs

     total energy              =    -111.57989868 Ry
     estimated scf accuracy    <       0.00000008 Ry

     total magnetization       =     5.19 Bohr mag/cell
     absolute magnetization    =     5.40 Bohr mag/cell

     iteration #  8     ecut=    30.00 Ry     beta= 0.50
     Davidson diagonalization with overlap
     ethr =  4.92E-10,  avg # of iterations =  5.9

     total cpu time spent up to now is      177.0 secs

     total energy              =    -111.57989886 Ry
     estimated scf accuracy    <       0.00000002 Ry

     total magnetization       =     5.19 Bohr mag/cell
     absolute magnetization    =     5.40 Bohr mag/cell

     iteration #  9     ecut=    30.00 Ry     beta= 0.50
     Davidson diagonalization with overlap
     ethr =  1.44E-10,  avg # of iterations =  2.7

     Magnetic moment per site  (integrated on atomic sphere of radius R)
     atom   1 (R=0.382)  charge=  6.5320  magn=  2.6309
     atom   2 (R=0.382)  charge=  6.5324  magn=  2.6309

     total cpu time spent up to now is      180.8 secs

     End of self-consistent calculation

     Number of k-points >= 100: set verbosity='high' to print the bands.

     the Fermi energy is    13.3579 ev

!    total energy              =    -111.57989887 Ry
     estimated scf accuracy    <          7.1E-10 Ry
     smearing contrib. (-TS)   =       0.00043481 Ry
     internal energy E=F+TS    =    -111.58033368 Ry

     The total energy is F=E-TS. E is the sum of the following terms:
     one-electron contribution =      14.08167082 Ry
     hartree contribution      =      13.45057054 Ry
     xc contribution           =     -52.96486370 Ry
     ewald contribution        =     -86.14771134 Ry

     total magnetization       =     5.19 Bohr mag/cell
     absolute magnetization    =     5.40 Bohr mag/cell

     convergence has been achieved in   9 iterations

     Forces acting on atoms (cartesian axes, Ry/au):

     atom    1 type  1   force =    -0.00000000   -0.00000096    0.00000000
     atom    2 type  1   force =     0.00000000    0.00000096   -0.00000000

     Total force =     0.000001     Total SCF correction =     0.000000


     Computing stress (Cartesian axis) and pressure

          total   stress  (Ry/bohr**3)                   (kbar)     P=       71.67
   0.00049203   0.00000000  -0.00000000           72.38        0.00       -0.00
  -0.00000000   0.00049200  -0.00000000           -0.00       72.38       -0.00
   0.00000000  -0.00000000   0.00047752            0.00       -0.00       70.25

     Energy error            =      9.5E-04 Ry
     Gradient error          =      9.6E-07 Ry/Bohr
     Cell gradient error     =      7.2E+01 kbar

     number of scf cycles    =   4
     number of bfgs steps    =   3

     enthalpy           old  =    -111.5789448119 Ry
     enthalpy           new  =    -111.5798988684 Ry

     CASE: enthalpy          _new < enthalpy          _old

     new trust radius        =       0.0299855262 bohr
     new conv_thr            =       0.0000000010 Ry

     new unit-cell volume =    161.94902 a.u.^3 (    23.99837 Ang^3 )
     density =      7.72826 g/cm^3

CELL_PARAMETERS (angstrom)
   2.527950962  -0.000000000   0.000000000
  -1.263975481   2.189260964   0.000000000
   0.000000000   0.000000000   4.336262364

ATOMIC_POSITIONS (angstrom)
Fe               0.0000000000       -0.0000015574       -0.0000000000
Fe               0.0000000000        1.4595128676        2.1681311818


     Message from routine punch:
     Nothing written, as per user request (disk_io='none')
     NEW-OLD atomic charge density approx. for the potential
     New effective cutoffs (rho, wfc):  341.96   34.21

     Check: negative core charge=   -0.000002
     Generating pointlists ...

     total cpu time spent up to now is      182.3 secs

     Self-consistent Calculation

     iteration #  1     ecut=    30.00 Ry     beta= 0.50
     Davidson diagonalization with overlap
     ethr =  1.00E-06,  avg # of iterations =  5.1

     total cpu time spent up to now is      189.5 secs

     total energy              =    -111.58101113 Ry
     estimated scf accuracy    <       0.00008557 Ry

     total magnetization       =     5.20 Bohr mag/cell
     absolute magnetization    =     5.42 Bohr mag/cell

     iteration #  2     ecut=    30.00 Ry     beta= 0.50
     Davidson diagonalization with overlap
     ethr =  5.35E-07,  avg # of iterations =  2.1

     total cpu time spent up to now is      193.2 secs

     total energy              =    -111.58103571 Ry
     estimated scf accuracy    <       0.00002561 Ry

     total magnetization       =     5.20 Bohr mag/cell
     absolute magnetization    =     5.43 Bohr mag/cell

     iteration #  3     ecut=    30.00 Ry     beta= 0.50
     Davidson diagonalization with overlap
     ethr =  1.60E-07,  avg # of iterations =  1.4

     total cpu time spent up to now is      196.6 secs

     total energy              =    -111.58104313 Ry
     estimated scf accuracy    <       0.00000735 Ry

     total magnetization       =     5.20 Bohr mag/cell
     absolute magnetization    =     5.43 Bohr mag/cell

     iteration #  4     ecut=    30.00 Ry     beta= 0.50
     Davidson diagonalization with overlap
     ethr =  4.59E-08,  avg # of iterations =  2.6

     total cpu time spent up to now is      200.5 secs

     total energy              =    -111.58103989 Ry
     estimated scf accuracy    <       0.00011384 Ry

     total magnetization       =     5.20 Bohr mag/cell
     absolute magnetization    =     5.43 Bohr mag/cell

     iteration #  5     ecut=    30.00 Ry     beta= 0.50
     Davidson diagonalization with overlap
     ethr =  4.59E-08,  avg # of iterations =  1.5

     total cpu time spent up to now is      203.9 secs

     total energy              =    -111.58104575 Ry
     estimated scf accuracy    <       0.00000103 Ry

     total magnetization       =     5.20 Bohr mag/cell
     absolute magnetization    =     5.43 Bohr mag/cell

     iteration #  6     ecut=    30.00 Ry     beta= 0.50
     Davidson diagonalization with overlap
     ethr =  6.42E-09,  avg # of iterations =  2.8

     total cpu time spent up to now is      208.3 secs

     total energy              =    -111.58104618 Ry
     estimated scf accuracy    <       0.00000071 Ry

     total magnetization       =     5.20 Bohr mag/cell
     absolute magnetization    =     5.43 Bohr mag/cell

     iteration #  7     ecut=    30.00 Ry     beta= 0.50
     Davidson diagonalization with overlap
     ethr =  4.47E-09,  avg # of iterations =  2.6

     total cpu time spent up to now is      212.5 secs

     total energy              =    -111.58104641 Ry
     estimated scf accuracy    <       0.00000028 Ry

     total magnetization       =     5.20 Bohr mag/cell
     absolute magnetization    =     5.44 Bohr mag/cell

     iteration #  8     ecut=    30.00 Ry     beta= 0.50
     Davidson diagonalization with overlap
     ethr =  1.75E-09,  avg # of iterations =  2.1

     total cpu time spent up to now is      216.2 secs

     total energy              =    -111.58104648 Ry
     estimated scf accuracy    <          3.0E-09 Ry

     total magnetization       =     5.20 Bohr mag/cell
     absolute magnetization    =     5.44 Bohr mag/cell

     iteration #  9     ecut=    30.00 Ry     beta= 0.50
     Davidson diagonalization with overlap
     ethr =  1.87E-11,  avg # of iterations =  9.9

     total cpu time spent up to now is      229.0 secs

     total energy              =    -111.58104650 Ry
     estimated scf accuracy    <          7.7E-09 Ry

     total magnetization       =     5.20 Bohr mag/cell
     absolute magnetization    =     5.44 Bohr mag/cell

     iteration # 10     ecut=    30.00 Ry     beta= 0.50
     Davidson diagonalization with overlap
     ethr =  1.87E-11,  avg # of iterations =  3.1

     Magnetic moment per site  (integrated on atomic sphere of radius R)
     atom   1 (R=0.382)  charge=  6.4997  magn=  2.6437
     atom   2 (R=0.382)  charge=  6.5006  magn=  2.6438

     total cpu time spent up to now is      233.5 secs

     End of self-consistent calculation

     Number of k-points >= 100: set verbosity='high' to print the bands.

     the Fermi energy is    12.9656 ev

!    total energy              =    -111.58104650 Ry
     estimated scf accuracy    <          2.1E-10 Ry
     smearing contrib. (-TS)   =       0.00009881 Ry
     internal energy E=F+TS    =    -111.58114531 Ry

     The total energy is F=E-TS. E is the sum of the following terms:
     one-electron contribution =      13.05960142 Ry
     hartree contribution      =      13.70974972 Ry
     xc contribution           =     -52.92848201 Ry
     ewald contribution        =     -85.42201443 Ry

     total magnetization       =     5.20 Bohr mag/cell
     absolute magnetization    =     5.44 Bohr mag/cell

     convergence has been achieved in  10 iterations

     Forces acting on atoms (cartesian axes, Ry/au):

     atom    1 type  1   force =    -0.00000000   -0.00000103    0.00000000
     atom    2 type  1   force =     0.00000000    0.00000103   -0.00000000

     Total force =     0.000001     Total SCF correction =     0.000000


     Computing stress (Cartesian axis) and pressure

          total   stress  (Ry/bohr**3)                   (kbar)     P=       18.97
   0.00006125   0.00000000  -0.00000000            9.01        0.00       -0.00
   0.00000000   0.00006121  -0.00000000            0.00        9.00       -0.00
  -0.00000000  -0.00000000   0.00026451           -0.00       -0.00       38.91

     Energy error            =      1.1E-03 Ry
     Gradient error          =      1.0E-06 Ry/Bohr
     Cell gradient error     =      3.9E+01 kbar

     number of scf cycles    =   5
     number of bfgs steps    =   4

     enthalpy           old  =    -111.5798988684 Ry
     enthalpy           new  =    -111.5810464993 Ry

     CASE: enthalpy          _new < enthalpy          _old

     new trust radius        =       0.0249477794 bohr
     new conv_thr            =       0.0000000010 Ry

     new unit-cell volume =    163.54703 a.u.^3 (    24.23517 Ang^3 )
     density =      7.65275 g/cm^3

CELL_PARAMETERS (angstrom)
   2.528035162  -0.000000000   0.000000000
  -1.264017581   2.189329809   0.000000000
   0.000000000   0.000000000   4.378766215

ATOMIC_POSITIONS (angstrom)
Fe               0.0000000000       -0.0000022970       -0.0000000000
Fe               0.0000000000        1.4595595039        2.1893831076


     Message from routine punch:
     Nothing written, as per user request (disk_io='none')
     NEW-OLD atomic charge density approx. for the potential
     New effective cutoffs (rho, wfc):  341.93   34.21

     Check: negative core charge=   -0.000003
     Generating pointlists ...

     total cpu time spent up to now is      235.0 secs

     Self-consistent Calculation

     iteration #  1     ecut=    30.00 Ry     beta= 0.50
     Davidson diagonalization with overlap
     ethr =  1.00E-06,  avg # of iterations =  4.3

     total cpu time spent up to now is      241.5 secs

     total energy              =    -111.58128880 Ry
     estimated scf accuracy    <       0.00002393 Ry

     total magnetization       =     5.21 Bohr mag/cell
     absolute magnetization    =     5.45 Bohr mag/cell

     iteration #  2     ecut=    30.00 Ry     beta= 0.50
     Davidson diagonalization with overlap
     ethr =  1.50E-07,  avg # of iterations =  2.0

     total cpu time spent up to now is      245.1 secs

     total energy              =    -111.58129610 Ry
     estimated scf accuracy    <       0.00000856 Ry

     total magnetization       =     5.21 Bohr mag/cell
     absolute magnetization    =     5.45 Bohr mag/cell

     iteration #  3     ecut=    30.00 Ry     beta= 0.50
     Davidson diagonalization with overlap
     ethr =  5.35E-08,  avg # of iterations =  1.7

     total cpu time spent up to now is      248.6 secs

     total energy              =    -111.58129703 Ry
     estimated scf accuracy    <       0.00000475 Ry

     total magnetization       =     5.22 Bohr mag/cell
     absolute magnetization    =     5.45 Bohr mag/cell

     iteration #  4     ecut=    30.00 Ry     beta= 0.50
     Davidson diagonalization with overlap
     ethr =  2.97E-08,  avg # of iterations =  2.1

     total cpu time spent up to now is      252.3 secs

     total energy              =    -111.58129498 Ry
     estimated scf accuracy    <       0.00007660 Ry

     total magnetization       =     5.22 Bohr mag/cell
     absolute magnetization    =     5.45 Bohr mag/cell

     iteration #  5     ecut=    30.00 Ry     beta= 0.50
     Davidson diagonalization with overlap
     ethr =  2.97E-08,  avg # of iterations =  1.3

     total cpu time spent up to now is      255.5 secs

     total energy              =    -111.58129904 Ry
     estimated scf accuracy    <       0.00000018 Ry

     total magnetization       =     5.22 Bohr mag/cell
     absolute magnetization    =     5.45 Bohr mag/cell

     iteration #  6     ecut=    30.00 Ry     beta= 0.50
     Davidson diagonalization with overlap
     ethr =  1.11E-09,  avg # of iterations =  4.1

     total cpu time spent up to now is      260.5 secs

     total energy              =    -111.58129921 Ry
     estimated scf accuracy    <       0.00000013 Ry

     total magnetization       =     5.22 Bohr mag/cell
     absolute magnetization    =     5.45 Bohr mag/cell

     iteration #  7     ecut=    30.00 Ry     beta= 0.50
     Davidson diagonalization with overlap
     ethr =  8.04E-10,  avg # of iterations =  1.9

     total cpu time spent up to now is      264.1 secs

     total energy              =    -111.58129924 Ry
     estimated scf accuracy    <       0.00000002 Ry

     total magnetization       =     5.22 Bohr mag/cell
     absolute magnetization    =     5.45 Bohr mag/cell

     iteration #  8     ecut=    30.00 Ry     beta= 0.50
     Davidson diagonalization with overlap
     ethr =  1.10E-10,  avg # of iterations =  4.5

     Magnetic moment per site  (integrated on atomic sphere of radius R)
     atom   1 (R=0.382)  charge=  6.4900  magn=  2.6511
     atom   2 (R=0.382)  charge=  6.4905  magn=  2.6511

     total cpu time spent up to now is      269.3 secs

     End of self-consistent calculation

     Number of k-points >= 100: set verbosity='high' to print the bands.

     the Fermi energy is    12.8061 ev

!    total energy              =    -111.58129925 Ry
     estimated scf accuracy    <          2.4E-10 Ry
     smearing contrib. (-TS)   =       0.00003360 Ry
     internal energy E=F+TS    =    -111.58133285 Ry

     The total energy is F=E-TS. E is the sum of the following terms:
     one-electron contribution =      12.63948392 Ry
     hartree contribution      =      13.82680252 Ry
     xc contribution           =     -52.91815009 Ry
     ewald contribution        =     -85.12946920 Ry

     total magnetization       =     5.22 Bohr mag/cell
     absolute magnetization    =     5.45 Bohr mag/cell

     convergence has been achieved in   8 iterations

     Forces acting on atoms (cartesian axes, Ry/au):

     atom    1 type  1   force =    -0.00000000   -0.00000113    0.00000000
     atom    2 type  1   force =     0.00000000    0.00000113   -0.00000000

     Total force =     0.000002     Total SCF correction =     0.000000


     Computing stress (Cartesian axis) and pressure

          total   stress  (Ry/bohr**3)                   (kbar)     P=        2.96
   0.00000331   0.00000000  -0.00000000            0.49        0.00       -0.00
   0.00000000   0.00000326  -0.00000000            0.00        0.48       -0.00
  -0.00000000  -0.00000000   0.00005383           -0.00       -0.00        7.92

     Energy error            =      2.5E-04 Ry
     Gradient error          =      1.1E-06 Ry/Bohr
     Cell gradient error     =      7.9E+00 kbar

     number of scf cycles    =   6
     number of bfgs steps    =   5

     enthalpy           old  =    -111.5810464993 Ry
     enthalpy           new  =    -111.5812992501 Ry

     CASE: enthalpy          _new < enthalpy          _old

     new trust radius        =       0.0068330866 bohr
     new conv_thr            =       0.0000000010 Ry

     new unit-cell volume =    163.86930 a.u.^3 (    24.28292 Ang^3 )
     density =      7.63770 g/cm^3

CELL_PARAMETERS (angstrom)
   2.527153721  -0.000000000   0.000000000
  -1.263576861   2.188562116   0.000000000
   0.000000000   0.000000000   4.390464370

ATOMIC_POSITIONS (angstrom)
Fe               0.0000000000       -0.0000030245       -0.0000000000
Fe               0.0000000000        1.4590484346        2.1952321849


     Message from routine punch:
     Nothing written, as per user request (disk_io='none')
     NEW-OLD atomic charge density approx. for the potential
     New effective cutoffs (rho, wfc):  342.16   34.23

     Check: negative core charge=   -0.000003
     Generating pointlists ...

     total cpu time spent up to now is      270.8 secs

     Self-consistent Calculation

     iteration #  1     ecut=    30.00 Ry     beta= 0.50
     Davidson diagonalization with overlap
     ethr =  1.00E-06,  avg # of iterations =  2.9

     Threshold (ethr) on eigenvalues was too large:
     Diagonalizing with lowered threshold

     Davidson diagonalization with overlap
     ethr =  9.96E-09,  avg # of iterations =  3.6

     total cpu time spent up to now is      280.5 secs

     total energy              =    -111.58131061 Ry
     estimated scf accuracy    <       0.00000182 Ry

     total magnetization       =     5.22 Bohr mag/cell
     absolute magnetization    =     5.45 Bohr mag/cell

     iteration #  2     ecut=    30.00 Ry     beta= 0.50
     Davidson diagonalization with overlap
     ethr =  1.14E-08,  avg # of iterations =  1.1

     total cpu time spent up to now is      283.6 secs

     total energy              =    -111.58131040 Ry
     estimated scf accuracy    <       0.00000166 Ry

     total magnetization       =     5.22 Bohr mag/cell
     absolute magnetization    =     5.45 Bohr mag/cell

     iteration #  3     ecut=    30.00 Ry     beta= 0.50
     Davidson diagonalization with overlap
     ethr =  1.04E-08,  avg # of iterations =  1.8

     total cpu time spent up to now is      287.4 secs

     total energy              =    -111.58131025 Ry
     estimated scf accuracy    <       0.00001669 Ry

     total magnetization       =     5.22 Bohr mag/cell
     absolute magnetization    =     5.45 Bohr mag/cell

     iteration #  4     ecut=    30.00 Ry     beta= 0.50
     Davidson diagonalization with overlap
     ethr =  1.04E-08,  avg # of iterations =  1.1

     total cpu time spent up to now is      291.5 secs

     total energy              =    -111.58131114 Ry
     estimated scf accuracy    <       0.00000003 Ry

     total magnetization       =     5.22 Bohr mag/cell
     absolute magnetization    =     5.46 Bohr mag/cell

     iteration #  5     ecut=    30.00 Ry     beta= 0.50
     Davidson diagonalization with overlap
     ethr =  2.09E-10,  avg # of iterations =  3.7

     total cpu time spent up to now is      297.0 secs

     total energy              =    -111.58131117 Ry
     estimated scf accuracy    <       0.00000002 Ry

     total magnetization       =     5.22 Bohr mag/cell
     absolute magnetization    =     5.46 Bohr mag/cell

     iteration #  6     ecut=    30.00 Ry     beta= 0.50
     Davidson diagonalization with overlap
     ethr =  1.05E-10,  avg # of iterations =  1.6

     total cpu time spent up to now is      300.6 secs

     total energy              =    -111.58131117 Ry
     estimated scf accuracy    <          1.0E-09 Ry

     total magnetization       =     5.22 Bohr mag/cell
     absolute magnetization    =     5.46 Bohr mag/cell

     iteration #  7     ecut=    30.00 Ry     beta= 0.50
     Davidson diagonalization with overlap
     ethr =  6.42E-12,  avg # of iterations =  6.5

     total cpu time spent up to now is      309.1 secs

     total energy              =    -111.58131117 Ry
     estimated scf accuracy    <          1.6E-09 Ry

     total magnetization       =     5.22 Bohr mag/cell
     absolute magnetization    =     5.46 Bohr mag/cell

     iteration #  8     ecut=    30.00 Ry     beta= 0.50
     Davidson diagonalization with overlap
     ethr =  6.42E-12,  avg # of iterations =  1.1

     Magnetic moment per site  (integrated on atomic sphere of radius R)
     atom   1 (R=0.382)  charge=  6.4882  magn=  2.6524
     atom   2 (R=0.382)  charge=  6.4887  magn=  2.6525

     total cpu time spent up to now is      313.0 secs

     End of self-consistent calculation

     Number of k-points >= 100: set verbosity='high' to print the bands.

     the Fermi energy is    12.7733 ev

!    total energy              =    -111.58131117 Ry
     estimated scf accuracy    <          1.7E-11 Ry
     smearing contrib. (-TS)   =       0.00002699 Ry
     internal energy E=F+TS    =    -111.58133817 Ry

     The total energy is F=E-TS. E is the sum of the following terms:
     one-electron contribution =      12.55166519 Ry
     hartree contribution      =      13.85222702 Ry
     xc contribution           =     -52.91631996 Ry
     ewald contribution        =     -85.06891042 Ry

     total magnetization       =     5.22 Bohr mag/cell
     absolute magnetization    =     5.46 Bohr mag/cell

     convergence has been achieved in   8 iterations

     Forces acting on atoms (cartesian axes, Ry/au):

     atom    1 type  1   force =    -0.00000000   -0.00000159    0.00000000
     atom    2 type  1   force =     0.00000000    0.00000159   -0.00000000

     Total force =     0.000002     Total SCF correction =     0.000000


     Computing stress (Cartesian axis) and pressure

          total   stress  (Ry/bohr**3)                   (kbar)     P=        0.03
  -0.00000043  -0.00000000  -0.00000000           -0.06       -0.00       -0.00
  -0.00000000  -0.00000050  -0.00000000           -0.00       -0.07       -0.00
  -0.00000000  -0.00000000   0.00000150           -0.00       -0.00        0.22

     Energy error            =      1.2E-05 Ry
     Gradient error          =      1.6E-06 Ry/Bohr
     Cell gradient error     =      2.2E-01 kbar

     bfgs converged in   7 scf cycles and   6 bfgs steps
     (criteria: energy <  1.0E-04 Ry, force <  1.0E-03 Ry/Bohr, cell <  5.0E-01 kbar)

     End of BFGS Geometry Optimization

     Final enthalpy           =    -111.5813111732 Ry

     File /home/bond/Work/Lab4/1A/Fe_hcp_nk_16_relax/pwscf.bfgs deleted, as requested
Begin final coordinates
     new unit-cell volume =    163.86930 a.u.^3 (    24.28292 Ang^3 )
     density =      7.63770 g/cm^3

CELL_PARAMETERS (angstrom)
   2.527153721  -0.000000000   0.000000000
  -1.263576861   2.188562116   0.000000000
   0.000000000   0.000000000   4.390464370

ATOMIC_POSITIONS (angstrom)
Fe               0.0000000000       -0.0000030245       -0.0000000000
Fe               0.0000000000        1.4590484346        2.1952321849
End final coordinates


     Message from routine punch:
     Nothing written, as per user request (disk_io='none')

     Final scf calculation at the relaxed structure.
     The G-vectors are recalculated for the final unit cell
     Results may differ from those at the preceding step.

     Parallelization info
     --------------------
     sticks:   dense  smooth     PW     G-vecs:    dense   smooth      PW
     Min         237      93     30                 7195     1839     356
     Max         238      94     31                 7196     1844     357
     Sum         475     187     61                14391     3683     713

     Using Slab Decomposition



     bravais-lattice index     =            0
     lattice parameter (alat)  =       5.1023  a.u.
     unit-cell volume          =     163.8693 (a.u.)^3
     number of atoms/cell      =            2
     number of atomic types    =            1
     number of electrons       =        16.00
     number of Kohn-Sham states=           12
     kinetic-energy cutoff     =      30.0000  Ry
     charge density cutoff     =     300.0000  Ry
     scf convergence threshold =      1.0E-09
     mixing beta               =       0.5000
     number of iterations used =            8  plain     mixing
     press convergence thresh. =      5.0E-01
     Exchange-correlation=  SLA  PW   PBE  PBE
                           (   1   4   3   4   0   0   0)

     celldm(1)=   5.102261  celldm(2)=   0.000000  celldm(3)=   0.000000
     celldm(4)=   0.000000  celldm(5)=   0.000000  celldm(6)=   0.000000

     crystal axes: (cart. coord. in units of alat)
               a(1) = (   0.935983  -0.000000   0.000000 )  
               a(2) = (  -0.467991   0.810579   0.000000 )  
               a(3) = (   0.000000   0.000000   1.626098 )  

     reciprocal axes: (cart. coord. in units 2 pi/alat)
               b(1) = (  1.068396  0.616843 -0.000000 )  
               b(2) = (  0.000000  1.233687 -0.000000 )  
               b(3) = ( -0.000000 -0.000000  0.614969 )  


     PseudoPot. # 1 for Fe read from file:
     /home/bond/Software/QE/qe-7.4.1/pseudo/Fe.pbe-nd-rrkjus.UPF
     MD5 check sum: 398036227a04b607635f6f5e8dfd8242
     Pseudo is Ultrasoft + core correction, Zval =  8.0
     Generated by new atomic code, or converted to UPF format
     Using radial grid of  957 points,  6 beta functions with: 
                l(1) =   0
                l(2) =   0
                l(3) =   1
                l(4) =   1
                l(5) =   2
                l(6) =   2
     Q(r) pseudized with 0 coefficients 


     atomic species   valence    mass     pseudopotential
     Fe                8.00    55.84500     Fe( 1.00)

     Starting magnetic structure 
     atomic species   magnetization
     Fe              0.409

      4 Sym. Ops. (no inversion) found



   Cartesian axes

     site n.     atom                  positions (alat units)
         1        Fe     tau(   1) = (   0.0000000  -0.0000011  -0.0000000  )
         2        Fe     tau(   2) = (   0.0000000   0.5403883   0.8130490  )

     number of k points=   365  Methfessel-Paxton smearing, width (Ry)=  0.0200

     Number of k-points >= 100: set verbosity='high' to print them.

     Dense  grid:    14391 G-vectors     FFT dimensions: (  27,  27,  45)

     Smooth grid:     3683 G-vectors     FFT dimensions: (  18,  18,  30)

     Estimated max dynamical RAM per process >      62.52 MB

     Estimated total dynamical RAM >     125.05 MB

     Check: negative core charge=   -0.000006
     Generating pointlists ...

     Initial potential from superposition of free atoms

     starting charge      15.9987, renormalised to      16.0000
     Starting wfcs are   12 randomized atomic wfcs

     total cpu time spent up to now is      315.9 secs

     Self-consistent Calculation

     iteration #  1     ecut=    30.00 Ry     beta= 0.50
     Davidson diagonalization with overlap
     c_bands:  1 eigenvalues not converged
     c_bands:  1 eigenvalues not converged
     c_bands:  1 eigenvalues not converged
     c_bands:  1 eigenvalues not converged
     c_bands:  1 eigenvalues not converged
     c_bands:  1 eigenvalues not converged
     c_bands:  1 eigenvalues not converged
     c_bands:  1 eigenvalues not converged
     c_bands:  1 eigenvalues not converged
     c_bands:  1 eigenvalues not converged
     c_bands:  1 eigenvalues not converged
     c_bands:  1 eigenvalues not converged
     c_bands:  1 eigenvalues not converged
     c_bands:  1 eigenvalues not converged
     c_bands:  1 eigenvalues not converged
     c_bands:  1 eigenvalues not converged
     c_bands:  1 eigenvalues not converged
     c_bands:  1 eigenvalues not converged
     c_bands:  1 eigenvalues not converged
     c_bands:  1 eigenvalues not converged
     c_bands:  1 eigenvalues not converged
     c_bands:  1 eigenvalues not converged
     c_bands:  1 eigenvalues not converged
     c_bands:  1 eigenvalues not converged
     c_bands:  1 eigenvalues not converged
     c_bands:  1 eigenvalues not converged
     c_bands:  1 eigenvalues not converged
     c_bands:  1 eigenvalues not converged
     c_bands:  1 eigenvalues not converged
     c_bands:  1 eigenvalues not converged
     c_bands:  1 eigenvalues not converged
     c_bands:  1 eigenvalues not converged
     c_bands:  1 eigenvalues not converged
     c_bands:  1 eigenvalues not converged
     c_bands:  1 eigenvalues not converged
     c_bands:  1 eigenvalues not converged
     c_bands:  1 eigenvalues not converged
     c_bands:  1 eigenvalues not converged
     c_bands:  1 eigenvalues not converged
     c_bands:  1 eigenvalues not converged
     c_bands:  1 eigenvalues not converged
     c_bands:  1 eigenvalues not converged
     c_bands:  1 eigenvalues not converged
     c_bands:  1 eigenvalues not converged
     c_bands:  1 eigenvalues not converged
     c_bands:  1 eigenvalues not converged
     c_bands:  1 eigenvalues not converged
     c_bands:  1 eigenvalues not converged
     c_bands:  1 eigenvalues not converged
     c_bands:  1 eigenvalues not converged
     c_bands:  1 eigenvalues not converged
     c_bands:  1 eigenvalues not converged
     c_bands:  1 eigenvalues not converged
     c_bands:  1 eigenvalues not converged
     c_bands:  1 eigenvalues not converged
     c_bands:  1 eigenvalues not converged
     c_bands:  1 eigenvalues not converged
     c_bands:  1 eigenvalues not converged
     c_bands:  1 eigenvalues not converged
     c_bands:  1 eigenvalues not converged
     c_bands:  1 eigenvalues not converged
     c_bands:  1 eigenvalues not converged
     c_bands:  1 eigenvalues not converged
     c_bands:  1 eigenvalues not converged
     c_bands:  1 eigenvalues not converged
     c_bands:  1 eigenvalues not converged
     c_bands:  1 eigenvalues not converged
     c_bands:  1 eigenvalues not converged
     c_bands:  1 eigenvalues not converged
     c_bands:  1 eigenvalues not converged
     c_bands:  1 eigenvalues not converged
     c_bands:  1 eigenvalues not converged
     c_bands:  1 eigenvalues not converged
     c_bands:  1 eigenvalues not converged
     ethr =  1.00E-06,  avg # of iterations = 15.6

     total cpu time spent up to now is      334.5 secs

     total energy              =    -111.30845710 Ry
     estimated scf accuracy    <       0.71107040 Ry

     total magnetization       =     4.91 Bohr mag/cell
     absolute magnetization    =     4.91 Bohr mag/cell

     iteration #  2     ecut=    30.00 Ry     beta= 0.50
     Davidson diagonalization with overlap
     ethr =  4.44E-03,  avg # of iterations =  2.3

     total cpu time spent up to now is      339.4 secs

     total energy              =    -111.54880348 Ry
     estimated scf accuracy    <       0.15782731 Ry

     total magnetization       =     5.18 Bohr mag/cell
     absolute magnetization    =     5.21 Bohr mag/cell

     iteration #  3     ecut=    30.00 Ry     beta= 0.50
     Davidson diagonalization with overlap
     ethr =  9.86E-04,  avg # of iterations =  1.4

     total cpu time spent up to now is      342.6 secs

     total energy              =    -111.57277878 Ry
     estimated scf accuracy    <       0.00979892 Ry

     total magnetization       =     5.22 Bohr mag/cell
     absolute magnetization    =     5.27 Bohr mag/cell

     iteration #  4     ecut=    30.00 Ry     beta= 0.50
     Davidson diagonalization with overlap
     ethr =  6.12E-05,  avg # of iterations =  3.1

     total cpu time spent up to now is      347.0 secs

     total energy              =    -111.57886407 Ry
     estimated scf accuracy    <       0.00917069 Ry

     total magnetization       =     5.23 Bohr mag/cell
     absolute magnetization    =     5.37 Bohr mag/cell

     iteration #  5     ecut=    30.00 Ry     beta= 0.50
     Davidson diagonalization with overlap
     ethr =  5.73E-05,  avg # of iterations =  1.2

     total cpu time spent up to now is      350.0 secs

     total energy              =    -111.57770743 Ry
     estimated scf accuracy    <       0.03608978 Ry

     total magnetization       =     5.22 Bohr mag/cell
     absolute magnetization    =     5.38 Bohr mag/cell

     iteration #  6     ecut=    30.00 Ry     beta= 0.50
     Davidson diagonalization with overlap
     ethr =  5.73E-05,  avg # of iterations =  2.3

     total cpu time spent up to now is      353.8 secs

     total energy              =    -111.58032454 Ry
     estimated scf accuracy    <       0.00495370 Ry

     total magnetization       =     5.21 Bohr mag/cell
     absolute magnetization    =     5.44 Bohr mag/cell

     iteration #  7     ecut=    30.00 Ry     beta= 0.50
     Davidson diagonalization with overlap
     ethr =  3.10E-05,  avg # of iterations =  1.7

     total cpu time spent up to now is      357.2 secs

     total energy              =    -111.58073591 Ry
     estimated scf accuracy    <       0.00032611 Ry

     total magnetization       =     5.22 Bohr mag/cell
     absolute magnetization    =     5.44 Bohr mag/cell

     iteration #  8     ecut=    30.00 Ry     beta= 0.50
     Davidson diagonalization with overlap
     ethr =  2.04E-06,  avg # of iterations =  2.8

     total cpu time spent up to now is      361.1 secs

     total energy              =    -111.58086129 Ry
     estimated scf accuracy    <       0.00000965 Ry

     total magnetization       =     5.22 Bohr mag/cell
     absolute magnetization    =     5.45 Bohr mag/cell

     iteration #  9     ecut=    30.00 Ry     beta= 0.50
     Davidson diagonalization with overlap
     ethr =  6.03E-08,  avg # of iterations =  5.5

     total cpu time spent up to now is      367.3 secs

     total energy              =    -111.58086952 Ry
     estimated scf accuracy    <       0.00001188 Ry

     total magnetization       =     5.22 Bohr mag/cell
     absolute magnetization    =     5.46 Bohr mag/cell

     iteration # 10     ecut=    30.00 Ry     beta= 0.50
     Davidson diagonalization with overlap
     ethr =  6.03E-08,  avg # of iterations =  2.2

     total cpu time spent up to now is      371.1 secs

     total energy              =    -111.58087272 Ry
     estimated scf accuracy    <       0.00000011 Ry

     total magnetization       =     5.22 Bohr mag/cell
     absolute magnetization    =     5.46 Bohr mag/cell

     iteration # 11     ecut=    30.00 Ry     beta= 0.50
     Davidson diagonalization with overlap
     ethr =  6.64E-10,  avg # of iterations =  8.9

     total cpu time spent up to now is      379.6 secs

     total energy              =    -111.58087187 Ry
     estimated scf accuracy    <       0.00000304 Ry

     total magnetization       =     5.22 Bohr mag/cell
     absolute magnetization    =     5.46 Bohr mag/cell

     iteration # 12     ecut=    30.00 Ry     beta= 0.50
     Davidson diagonalization with overlap
     ethr =  6.64E-10,  avg # of iterations =  4.9

     total cpu time spent up to now is      385.3 secs

     total energy              =    -111.58087276 Ry
     estimated scf accuracy    <       0.00000081 Ry

     total magnetization       =     5.22 Bohr mag/cell
     absolute magnetization    =     5.46 Bohr mag/cell

     iteration # 13     ecut=    30.00 Ry     beta= 0.50
     Davidson diagonalization with overlap
     ethr =  6.64E-10,  avg # of iterations =  3.8

     total cpu time spent up to now is      390.1 secs

     total energy              =    -111.58087295 Ry
     estimated scf accuracy    <       0.00000001 Ry

     total magnetization       =     5.22 Bohr mag/cell
     absolute magnetization    =     5.46 Bohr mag/cell

     iteration # 14     ecut=    30.00 Ry     beta= 0.50
     Davidson diagonalization with overlap
     ethr =  6.47E-11,  avg # of iterations =  1.6

     total cpu time spent up to now is      393.4 secs

     total energy              =    -111.58087295 Ry
     estimated scf accuracy    <          3.5E-09 Ry

     total magnetization       =     5.22 Bohr mag/cell
     absolute magnetization    =     5.46 Bohr mag/cell

     iteration # 15     ecut=    30.00 Ry     beta= 0.50
     Davidson diagonalization with overlap
     ethr =  2.21E-11,  avg # of iterations =  2.7

     Magnetic moment per site  (integrated on atomic sphere of radius R)
     atom   1 (R=0.382)  charge=  6.4879  magn=  2.6525
     atom   2 (R=0.382)  charge=  6.4875  magn=  2.6525

     total cpu time spent up to now is      397.1 secs

     End of self-consistent calculation

     Number of k-points >= 100: set verbosity='high' to print the bands.

     the Fermi energy is    12.7748 ev

!    total energy              =    -111.58087295 Ry
     estimated scf accuracy    <          2.8E-11 Ry
     smearing contrib. (-TS)   =       0.00002574 Ry
     internal energy E=F+TS    =    -111.58089869 Ry

     The total energy is F=E-TS. E is the sum of the following terms:
     one-electron contribution =      12.55248926 Ry
     hartree contribution      =      13.85294645 Ry
     xc contribution           =     -52.91742398 Ry
     ewald contribution        =     -85.06891042 Ry

     total magnetization       =     5.22 Bohr mag/cell
     absolute magnetization    =     5.46 Bohr mag/cell

     convergence has been achieved in  15 iterations

     Forces acting on atoms (cartesian axes, Ry/au):

     atom    1 type  1   force =    -0.00000000   -0.00000165    0.00000000
     atom    2 type  1   force =     0.00000000    0.00000165   -0.00000000

     Total force =     0.000002     Total SCF correction =     0.000000


     Computing stress (Cartesian axis) and pressure

          total   stress  (Ry/bohr**3)                   (kbar)     P=       -1.02
  -0.00001320  -0.00000000   0.00000000           -1.94       -0.00        0.00
  -0.00000000  -0.00001327   0.00000000           -0.00       -1.95        0.00
   0.00000000   0.00000000   0.00000559            0.00        0.00        0.82

     Message from routine punch:
     Nothing written, as per user request (disk_io='none')

     init_run     :      2.97s CPU      3.30s WALL (       2 calls)
     electrons    :    338.03s CPU    382.97s WALL (       8 calls)
     update_pot   :      0.10s CPU      0.11s WALL (       6 calls)
     forces       :      1.96s CPU      2.01s WALL (       8 calls)
     stress       :      9.81s CPU      9.94s WALL (       8 calls)

     Called by init_run:
     wfcinit      :      2.31s CPU      2.62s WALL (       2 calls)
     potinit      :      0.16s CPU      0.16s WALL (       2 calls)
     hinit0       :      0.39s CPU      0.40s WALL (       2 calls)

     Called by electrons:
     c_bands      :    295.59s CPU    334.77s WALL (      80 calls)
     sum_band     :     39.38s CPU     45.09s WALL (      80 calls)
     v_of_rho     :      1.28s CPU      1.30s WALL (      87 calls)
     newd         :      1.90s CPU      1.92s WALL (      87 calls)
     mix_rho      :      0.09s CPU      0.09s WALL (      80 calls)

     Called by c_bands:
     init_us_2    :      7.00s CPU      7.96s WALL (  129940 calls)
     cegterg      :    275.87s CPU    312.50s WALL (   58400 calls)

     Called by *egterg:
     cdiaghg      :     26.81s CPU     30.30s WALL (  241063 calls)
     h_psi        :    221.25s CPU    250.85s WALL (  247633 calls)
     s_psi        :      4.67s CPU      5.33s WALL (  247633 calls)
     g_psi        :      1.43s CPU      1.61s WALL (  187773 calls)

     Called by h_psi:
     h_psi:calbec :      8.06s CPU      9.15s WALL (  247633 calls)
     vloc_psi     :    206.63s CPU    234.27s WALL (  247633 calls)
     add_vuspsi   :      4.89s CPU      5.60s WALL (  247633 calls)

     General routines
     calbec       :     13.00s CPU     14.51s WALL (  405313 calls)
     fft          :      0.65s CPU      0.67s WALL (    2487 calls)
     ffts         :      0.13s CPU      0.13s WALL (     334 calls)
     fftw         :    206.30s CPU    234.50s WALL ( 5023100 calls)
     interpolate  :      0.16s CPU      0.16s WALL (     174 calls)

     Parallel routines

     PWSCF        :   5m53.11s CPU   6m38.60s WALL


   This run was terminated on:  18:43:50  20Oct2025            

=------------------------------------------------------------------------------=
   JOB DONE.
=------------------------------------------------------------------------------=
