LAMMPS (22 Jul 2025 - Update 1)
# ---------- 1. Initialize simulation ---------------------
units metal
atom_style atomic
dimension  3
boundary   p p f
read_data /home/bond/Work/Lab1/Surface/EAM/relax/9_9_111/lammps.data
Reading data file ...
  orthogonal box = (0 0 0) to (8.6584976 7.4984789 36.852356)
  1 by 1 by 1 MPI processor grid
  reading atoms ...
  81 atoms
  read_data CPU = 0.001 seconds

# ---------- 2. Specify interatomic potential ---------------------
pair_style eam/alloy
pair_coeff * * /home/bond/Software/LAMMPS/lammps-22Jul2025/potentials/Al_zhou.eam.alloy  Al
Reading eam/alloy potential file /home/bond/Software/LAMMPS/lammps-22Jul2025/potentials/Al_zhou.eam.alloy with DATE: 2007-10-12

# pair_style lj/cut 4.5
# pair_coeff 1 1 0.392 2.620 4.5

# ---------- 3. Run single point calculation  ---------------------
thermo_style custom step pe lx ly lz press pxx pyy pzz
run 0
WARNING: No fixes with time integration, atoms won't move
For more information see https://docs.lammps.org/err0028 (../verlet.cpp:60)
Neighbor list info ...
  update: every = 1 steps, delay = 0 steps, check = yes
  max neighbors/atom: 2000, page size: 100000
  master list distance cutoff = 12.1025
  ghost atom cutoff = 12.1025
  binsize = 6.05125, bins = 2 2 7
  1 neighbor lists, perpetual/occasional/extra = 1 0 0
  (1) pair eam/alloy, perpetual
      attributes: half, newton on
      pair build: half/bin/atomonly/newton
      stencil: half/bin/3d
      bin: standard
Per MPI rank memory allocation (min/avg/max) = 3.354 | 3.354 | 3.354 Mbytes
   Step         PotEng           Lx             Ly             Lz           Press           Pxx            Pyy            Pzz      
         0  -278.38232      8.6584976      7.4984789      36.852356      3043.5381     -8800.4992      15679.151      2251.9624    
Loop time of 1.635e-06 on 1 procs for 0 steps with 81 atoms

122.3% CPU use with 1 MPI tasks x no OpenMP threads

MPI task timing breakdown:
Section |  min time  |  avg time  |  max time  |%varavg| %total
---------------------------------------------------------------
Pair    | 0          | 0          | 0          |   0.0 |  0.00
Neigh   | 0          | 0          | 0          |   0.0 |  0.00
Comm    | 0          | 0          | 0          |   0.0 |  0.00
Output  | 0          | 0          | 0          |   0.0 |  0.00
Modify  | 0          | 0          | 0          |   0.0 |  0.00
Other   |            | 1.635e-06  |            |       |100.00

Nlocal:             81 ave          81 max          81 min
Histogram: 1 0 0 0 0 0 0 0 0 0
Nghost:           1236 ave        1236 max        1236 min
Histogram: 1 0 0 0 0 0 0 0 0 0
Neighs:          13878 ave       13878 max       13878 min
Histogram: 1 0 0 0 0 0 0 0 0 0

Total # of neighbors = 13878
Ave neighs/atom = 171.33333
Neighbor list builds = 0
Dangerous builds = 0
# -- include optimization of the unit cell parameter
#fix 1 all box/relax x 0.0 y 0.0 couple xy vmax 0.001

# -- enable optimization of atomic positions (and the cell)
min_style cg
minimize 1e-10 1e-10 1000 10000
Per MPI rank memory allocation (min/avg/max) = 4.479 | 4.479 | 4.479 Mbytes
   Step         PotEng           Lx             Ly             Lz           Press           Pxx            Pyy            Pzz      
         0  -278.38232      8.6584976      7.4984789      36.852356      3043.5381     -8800.4992      15679.151      2251.9624    
        33  -280.64012      8.6584976      7.4984789      36.852356      3269.3771     -3853.0019      13660.024      1.1096583    
Loop time of 0.061356 on 1 procs for 33 steps with 81 atoms

99.6% CPU use with 1 MPI tasks x no OpenMP threads

Minimization stats:
  Stopping criterion = energy tolerance
  Energy initial, next-to-last, final = 
     -278.382324059964  -280.640119455524  -280.640119476717
  Force two-norm initial, final = 4.7324453 0.00022985139
  Force max component initial, final = 0.66710948 3.9099578e-05
  Final line search alpha, max atom move = 1 3.9099578e-05
  Iterations, force evaluations = 33 65

MPI task timing breakdown:
Section |  min time  |  avg time  |  max time  |%varavg| %total
---------------------------------------------------------------
Pair    | 0.060354   | 0.060354   | 0.060354   |   0.0 | 98.37
Neigh   | 0          | 0          | 0          |   0.0 |  0.00
Comm    | 0.0005462  | 0.0005462  | 0.0005462  |   0.0 |  0.89
Output  | 0          | 0          | 0          |   0.0 |  0.00
Modify  | 0          | 0          | 0          |   0.0 |  0.00
Other   |            | 0.0004561  |            |       |  0.74

Nlocal:             81 ave          81 max          81 min
Histogram: 1 0 0 0 0 0 0 0 0 0
Nghost:           1236 ave        1236 max        1236 min
Histogram: 1 0 0 0 0 0 0 0 0 0
Neighs:          13878 ave       13878 max       13878 min
Histogram: 1 0 0 0 0 0 0 0 0 0

Total # of neighbors = 13878
Ave neighs/atom = 171.33333
Neighbor list builds = 0
Dangerous builds = 0

# ---- 4. Define and print useful variables -------------
variable natoms equal "count(all)"
variable totenergy equal "pe"
variable length equal "lx"

print "Total energy (eV) = ${totenergy}"
Total energy (eV) = -280.640119476717
print "Number of atoms = ${natoms}"
Number of atoms = 81
print "Lattice constant (Angstoms) = ${length}"
Lattice constant (Angstoms) = 8.65849758507688
Total wall time: 0:00:00
