LAMMPS (22 Jul 2025 - Update 1)
Reading data file ...
  orthogonal box = (0 0 0) to (8.6584976 7.4984789 24.139267)
  1 by 1 by 1 MPI processor grid
  reading atoms ...
  63 atoms
  read_data CPU = 0.001 seconds
Reading eam/alloy potential file /home/bond/Software/LAMMPS/lammps-22Jul2025/potentials/Al_zhou.eam.alloy with DATE: 2007-10-12
WARNING: No fixes with time integration, atoms won't move
For more information see https://docs.lammps.org/err0028 (../verlet.cpp:60)
Neighbor list info ...
  update: every = 1 steps, delay = 0 steps, check = yes
  max neighbors/atom: 2000, page size: 100000
  master list distance cutoff = 12.1025
  ghost atom cutoff = 12.1025
  binsize = 6.05125, bins = 2 2 4
  1 neighbor lists, perpetual/occasional/extra = 1 0 0
  (1) pair eam/alloy, perpetual
      attributes: half, newton on
      pair build: half/bin/atomonly/newton
      stencil: half/bin/3d
      bin: standard
Setting up Verlet run ...
  Unit style    : metal
  Current step  : 0
  Time step     : 0.001
Per MPI rank memory allocation (min/avg/max) = 3.341 | 3.341 | 3.341 Mbytes
   Step         PotEng           Lx             Ly             Lz           Press           Pxx            Pyy            Pzz      
         0  -215.16182      8.6584976      7.4984789      24.139267      780.26685     -13303.24       15114.727      529.31353    
Loop time of 1.943e-06 on 1 procs for 0 steps with 63 atoms

102.9% CPU use with 1 MPI tasks x no OpenMP threads

MPI task timing breakdown:
Section |  min time  |  avg time  |  max time  |%varavg| %total
---------------------------------------------------------------
Pair    | 0          | 0          | 0          |   0.0 |  0.00
Neigh   | 0          | 0          | 0          |   0.0 |  0.00
Comm    | 0          | 0          | 0          |   0.0 |  0.00
Output  | 0          | 0          | 0          |   0.0 |  0.00
Modify  | 0          | 0          | 0          |   0.0 |  0.00
Other   |            | 1.943e-06  |            |       |100.00

Nlocal:             63 ave          63 max          63 min
Histogram: 1 0 0 0 0 0 0 0 0 0
Nghost:            955 ave         955 max         955 min
Histogram: 1 0 0 0 0 0 0 0 0 0
Neighs:           9972 ave        9972 max        9972 min
Histogram: 1 0 0 0 0 0 0 0 0 0

Total # of neighbors = 9972
Ave neighs/atom = 158.28571
Neighbor list builds = 0
Dangerous builds = 0
Setting up cg style minimization ...
  Unit style    : metal
  Current step  : 0
Per MPI rank memory allocation (min/avg/max) = 4.466 | 4.466 | 4.466 Mbytes
   Step         PotEng           Lx             Ly             Lz           Press           Pxx            Pyy            Pzz      
         0  -215.16182      8.6584976      7.4984789      24.139267      780.26685     -13303.24       15114.727      529.31353    
        32  -216.88528      8.6584976      7.4984789      24.139267      2786.5973     -5927.9718      14286.82       0.94392875   
Loop time of 0.0377542 on 1 procs for 32 steps with 63 atoms

100.0% CPU use with 1 MPI tasks x no OpenMP threads

Minimization stats:
  Stopping criterion = energy tolerance
  Energy initial, next-to-last, final = 
     -215.161820087231  -216.885275930948  -216.885275941298
  Force two-norm initial, final = 4.0044645 0.00013898707
  Force max component initial, final = 0.65897754 2.7324294e-05
  Final line search alpha, max atom move = 1 2.7324294e-05
  Iterations, force evaluations = 32 63

MPI task timing breakdown:
Section |  min time  |  avg time  |  max time  |%varavg| %total
---------------------------------------------------------------
Pair    | 0.037112   | 0.037112   | 0.037112   |   0.0 | 98.30
Neigh   | 0          | 0          | 0          |   0.0 |  0.00
Comm    | 0.00035013 | 0.00035013 | 0.00035013 |   0.0 |  0.93
Output  | 0          | 0          | 0          |   0.0 |  0.00
Modify  | 0          | 0          | 0          |   0.0 |  0.00
Other   |            | 0.0002923  |            |       |  0.77

Nlocal:             63 ave          63 max          63 min
Histogram: 1 0 0 0 0 0 0 0 0 0
Nghost:            955 ave         955 max         955 min
Histogram: 1 0 0 0 0 0 0 0 0 0
Neighs:           9972 ave        9972 max        9972 min
Histogram: 1 0 0 0 0 0 0 0 0 0

Total # of neighbors = 9972
Ave neighs/atom = 158.28571
Neighbor list builds = 0
Dangerous builds = 0
Total energy (eV) = -216.885275941298
Number of atoms = 63
Lattice constant (Angstoms) = 8.65849758507688
Total wall time: 0:00:00
