LAMMPS (22 Jul 2025 - Update 1)
# ---------- 1. Initialize simulation ---------------------
units metal
atom_style atomic
dimension  3
boundary   p p f
read_data /home/bond/Work/Lab1/Surface/LJ/relax/4_1_111/lammps.data
Reading data file ...
  orthogonal box = (0 0 0) to (8.7451919 7.5735584 9.1404193)
  1 by 1 by 1 MPI processor grid
  reading atoms ...
  36 atoms
  read_data CPU = 0.001 seconds

# ---------- 2. Specify interatomic potential ---------------------
pair_style lj/cut 4.5
pair_coeff 1 1 0.392 2.620 4.5

# ---------- 3. Run single point calculation  ---------------------
thermo_style custom step pe lx ly lz press pxx pyy pzz
run 0
WARNING: No fixes with time integration, atoms won't move
For more information see https://docs.lammps.org/err0028 (../verlet.cpp:60)
Generated 0 of 0 mixed pair_coeff terms from geometric mixing rule
Neighbor list info ...
  update: every = 1 steps, delay = 0 steps, check = yes
  max neighbors/atom: 2000, page size: 100000
  master list distance cutoff = 6.5
  ghost atom cutoff = 6.5
  binsize = 3.25, bins = 3 3 3
  1 neighbor lists, perpetual/occasional/extra = 1 0 0
  (1) pair lj/cut, perpetual
      attributes: half, newton on
      pair build: half/bin/atomonly/newton
      stencil: half/bin/3d
      bin: standard
Per MPI rank memory allocation (min/avg/max) = 3.052 | 3.052 | 3.052 Mbytes
   Step         PotEng           Lx             Ly             Lz           Press           Pxx            Pyy            Pzz      
         0  -67.508387      8.7451919      7.5735584      9.1404193      202024.92     -31114.555      538858.26      98331.051    
Loop time of 1.894e-06 on 1 procs for 0 steps with 36 atoms

105.6% CPU use with 1 MPI tasks x no OpenMP threads

MPI task timing breakdown:
Section |  min time  |  avg time  |  max time  |%varavg| %total
---------------------------------------------------------------
Pair    | 0          | 0          | 0          |   0.0 |  0.00
Neigh   | 0          | 0          | 0          |   0.0 |  0.00
Comm    | 0          | 0          | 0          |   0.0 |  0.00
Output  | 0          | 0          | 0          |   0.0 |  0.00
Modify  | 0          | 0          | 0          |   0.0 |  0.00
Other   |            | 1.894e-06  |            |       |100.00

Nlocal:             36 ave          36 max          36 min
Histogram: 1 0 0 0 0 0 0 0 0 0
Nghost:            206 ave         206 max         206 min
Histogram: 1 0 0 0 0 0 0 0 0 0
Neighs:            819 ave         819 max         819 min
Histogram: 1 0 0 0 0 0 0 0 0 0

Total # of neighbors = 819
Ave neighs/atom = 22.75
Neighbor list builds = 0
Dangerous builds = 0
# -- include optimization of the unit cell parameter
fix 1 all box/relax x 0.0 y 0.0 couple xy vmax 0.001

# -- enable optimization of atomic positions (and the cell)
min_style cg
minimize 1e-10 1e-10 1000 10000
Generated 0 of 0 mixed pair_coeff terms from geometric mixing rule
WARNING: Energy due to 3 extra global DOFs will be included in minimizer energies
 (../min.cpp:222)
Per MPI rank memory allocation (min/avg/max) = 4.177 | 4.177 | 4.177 Mbytes
   Step         PotEng           Lx             Ly             Lz           Press           Pxx            Pyy            Pzz      
         0  -67.508387      8.7451919      7.5735584      9.1404193      202024.92     -31114.555      538858.26      98331.051    
        50  -71.952735      9.0744963      7.8587443      9.1404193      17835.205     -135652.3       154188.03      34969.886    
Loop time of 0.00486906 on 1 procs for 50 steps with 36 atoms

57.2% CPU use with 1 MPI tasks x no OpenMP threads

Minimization stats:
  Stopping criterion = linesearch alpha is zero
  Energy initial, next-to-last, final = 
     -67.5083866180269  -71.9527348184818  -71.9527348184818
  Force two-norm initial, final = 140.80626 23.185038
  Force max component initial, final = 95.926729 5.42756
  Final line search alpha, max atom move = 1.6402958e-11 8.9028037e-11
  Iterations, force evaluations = 50 202

MPI task timing breakdown:
Section |  min time  |  avg time  |  max time  |%varavg| %total
---------------------------------------------------------------
Pair    | 0.0029025  | 0.0029025  | 0.0029025  |   0.0 | 59.61
Neigh   | 0          | 0          | 0          |   0.0 |  0.00
Comm    | 0.000266   | 0.000266   | 0.000266   |   0.0 |  5.46
Output  | 0          | 0          | 0          |   0.0 |  0.00
Modify  | 0          | 0          | 0          |   0.0 |  0.00
Other   |            | 0.001701   |            |       | 34.93

Nlocal:             36 ave          36 max          36 min
Histogram: 1 0 0 0 0 0 0 0 0 0
Nghost:            206 ave         206 max         206 min
Histogram: 1 0 0 0 0 0 0 0 0 0
Neighs:            819 ave         819 max         819 min
Histogram: 1 0 0 0 0 0 0 0 0 0

Total # of neighbors = 819
Ave neighs/atom = 22.75
Neighbor list builds = 0
Dangerous builds = 0

# ---- 4. Define and print useful variables -------------
variable natoms equal "count(all)"
variable totenergy equal "pe"
variable length equal "lx"

print "Total energy (eV) = ${totenergy}"
Total energy (eV) = -71.9527348184818
print "Number of atoms = ${natoms}"
Number of atoms = 36
print "Lattice constant (Angstoms) = ${length}"
Lattice constant (Angstoms) = 9.07449628303303
Total wall time: 0:00:00
