Header of the LAMMPS data file 

4 atoms 
1 atom types

0.0 3.98  xlo xhi
0.0 3.98  ylo yhi
0.0 3.98  zlo zhi

Masses 

1  26.9815385

Atoms # atomic 

1 1 0.00000 0.00000 0.00000 
2 1 0.00000 1.99000 1.99000 
3 1 1.99000 0.00000 1.99000 
4 1 1.99000 1.99000 0.00000 
