
     Program PWSCF v.7.4.1 starts on 21Oct2025 at 12:59:58 

     This program is part of the open-source Quantum ESPRESSO suite
     for quantum simulation of materials; please cite
         "P. Giannozzi et al., J. Phys.:Condens. Matter 21 395502 (2009);
         "P. Giannozzi et al., J. Phys.:Condens. Matter 29 465901 (2017);
         "P. Giannozzi et al., J. Chem. Phys. 152 154105 (2020);
          URL http://www.quantum-espresso.org", 
     in publications or presentations arising from this work. More details at
     http://www.quantum-espresso.org/quote

     Parallel version (MPI), running on     2 processors

     MPI processes distributed on     1 nodes
     804 MiB available memory on the printing compute node when the environment starts

     Waiting for input...
     Reading input from standard input
Warning: card &CELL ignored
Warning: card / ignored

     Current dimensions of program PWSCF are:
     Max number of different atomic species (ntypx) = 10
     Max number of k-points (npk) =  40000
     Max angular momentum in pseudopotentials (lmaxx) =  4
     file O.pz-rrkjus.UPF: wavefunction(s)  2S renormalized
     Message from routine setup:
     using ibrav=0 with symmetry is DISCOURAGED, use correct ibrav instead

     R & G space division:  proc/nbgrp/npool/nimage =       2
     Subspace diagonalization in iterative solution of the eigenvalue problem:
     a serial algorithm will be used


     Parallelization info
     --------------------
     sticks:   dense  smooth     PW     G-vecs:    dense   smooth      PW
     Min         516     254     74                12286     4354     709
     Max         517     255     75                12287     4355     710
     Sum        1033     509    149                24573     8709    1419

     Using Slab Decomposition



     bravais-lattice index     =            0
     lattice parameter (alat)  =       7.3227  a.u.
     unit-cell volume          =     392.6555 (a.u.)^3
     number of atoms/cell      =            5
     number of atomic types    =            3
     number of electrons       =        44.00
     number of Kohn-Sham states=           22
     kinetic-energy cutoff     =      30.0000  Ry
     charge density cutoff     =     240.0000  Ry
     scf convergence threshold =      1.0E-07
     mixing beta               =       0.7000
     number of iterations used =            8  plain     mixing
     energy convergence thresh.=      1.0E-04
     force convergence thresh. =      1.0E-03
     Exchange-correlation= SLA  PZ   NOGX NOGC
                           (   1   1   0   0   0   0   0)
     nstep                     =           50


     celldm(1)=   7.322689  celldm(2)=   0.000000  celldm(3)=   0.000000
     celldm(4)=   0.000000  celldm(5)=   0.000000  celldm(6)=   0.000000

     crystal axes: (cart. coord. in units of alat)
               a(1) = (   1.000000   0.000000   0.000000 )  
               a(2) = (   0.000000   1.000000   0.000000 )  
               a(3) = (   0.000000   0.000000   1.000000 )  

     reciprocal axes: (cart. coord. in units 2 pi/alat)
               b(1) = (  1.000000  0.000000  0.000000 )  
               b(2) = (  0.000000  1.000000  0.000000 )  
               b(3) = (  0.000000  0.000000  1.000000 )  


     PseudoPot. # 1 for O  read from file:
     /home/bond/Software/QE/qe-7.4.1/pseudo/O.pz-rrkjus.UPF
     MD5 check sum: 24fb942a68ef5d262e498166c462ef4a
     Pseudo is Ultrasoft, Zval =  6.0
     Generated by new atomic code, or converted to UPF format
     Using radial grid of 1269 points,  4 beta functions with: 
                l(1) =   0
                l(2) =   0
                l(3) =   1
                l(4) =   1
     Q(r) pseudized with 0 coefficients 


     PseudoPot. # 2 for Pb read from file:
     /home/bond/Software/QE/qe-7.4.1/pseudo/Pb.pz-d-van.UPF
     MD5 check sum: 4e1e5920686a026ae26139ac417581ff
     Pseudo is Ultrasoft, Zval = 14.0
     Generated by new atomic code, or converted to UPF format
     Using radial grid of  899 points,  6 beta functions with: 
                l(1) =   0
                l(2) =   0
                l(3) =   1
                l(4) =   1
                l(5) =   2
                l(6) =   2
     Q(r) pseudized with  8 coefficients,  rinner =    1.000   1.000   1.000
                                                       1.000   1.000

     PseudoPot. # 3 for Ti read from file:
     /home/bond/Software/QE/qe-7.4.1/pseudo/Ti.pz-sp-van_ak.UPF
     MD5 check sum: 545d0e6e05332b8871a8093f427cb0ca
     Pseudo is Ultrasoft, Zval = 12.0
     Generated by new atomic code, or converted to UPF format
     Using radial grid of  851 points,  6 beta functions with: 
                l(1) =   0
                l(2) =   0
                l(3) =   1
                l(4) =   1
                l(5) =   2
                l(6) =   2
     Q(r) pseudized with  8 coefficients,  rinner =    1.000   1.000   1.000
                                                       1.000   1.000

     atomic species   valence    mass     pseudopotential
     O                 6.00    15.99900     O ( 1.00)
     Pb               14.00   207.20000     Pb( 1.00)
     Ti               12.00    47.86700     Ti( 1.00)

     48 Sym. Ops., with inversion, found



   Cartesian axes

     site n.     atom                  positions (alat units)
         1        Pb     tau(   1) = (   0.0000000   0.0000000   0.0000000  )
         2        Ti     tau(   2) = (   0.5000000   0.5000000   0.5000000  )
         3        O      tau(   3) = (   0.0000000   0.5000000   0.5000000  )
         4        O      tau(   4) = (   0.5000000   0.0000000   0.5000000  )
         5        O      tau(   5) = (   0.5000000   0.5000000   0.0000000  )

     number of k points=     4
                       cart. coord. in units 2pi/alat
        k(    1) = (   0.1250000   0.1250000   0.1250000), wk =   0.2500000
        k(    2) = (   0.1250000   0.1250000   0.3750000), wk =   0.7500000
        k(    3) = (   0.1250000   0.3750000   0.3750000), wk =   0.7500000
        k(    4) = (   0.3750000   0.3750000   0.3750000), wk =   0.2500000

     Dense  grid:    24573 G-vectors     FFT dimensions: (  40,  40,  40)

     Smooth grid:     8709 G-vectors     FFT dimensions: (  25,  25,  25)

     Estimated max dynamical RAM per process >      50.83 MB

     Estimated total dynamical RAM >     101.65 MB

     Initial potential from superposition of free atoms

     starting charge      42.9982, renormalised to      44.0000
     Starting wfcs are   31 randomized atomic wfcs

     total cpu time spent up to now is        1.9 secs

     Self-consistent Calculation

     iteration #  1     ecut=    30.00 Ry     beta= 0.70
     Davidson diagonalization with overlap
     ethr =  1.00E-02,  avg # of iterations =  2.0

     total cpu time spent up to now is        2.3 secs

     total energy              =    -332.61452064 Ry
     estimated scf accuracy    <       1.10231792 Ry

     iteration #  2     ecut=    30.00 Ry     beta= 0.70
     Davidson diagonalization with overlap
     ethr =  2.51E-03,  avg # of iterations =  6.8

     total cpu time spent up to now is        3.0 secs

     total energy              =    -332.34958260 Ry
     estimated scf accuracy    <       4.35378582 Ry

     iteration #  3     ecut=    30.00 Ry     beta= 0.70
     Davidson diagonalization with overlap
     ethr =  2.51E-03,  avg # of iterations =  6.0

     total cpu time spent up to now is        3.5 secs

     total energy              =    -333.15927215 Ry
     estimated scf accuracy    <       0.23658728 Ry

     iteration #  4     ecut=    30.00 Ry     beta= 0.70
     Davidson diagonalization with overlap
     ethr =  5.38E-04,  avg # of iterations =  2.0

     total cpu time spent up to now is        4.0 secs

     total energy              =    -333.15263421 Ry
     estimated scf accuracy    <       0.06797548 Ry

     iteration #  5     ecut=    30.00 Ry     beta= 0.70
     Davidson diagonalization with overlap
     ethr =  1.54E-04,  avg # of iterations =  5.2

     total cpu time spent up to now is        4.5 secs

     total energy              =    -333.18235037 Ry
     estimated scf accuracy    <       0.02944992 Ry

     iteration #  6     ecut=    30.00 Ry     beta= 0.70
     Davidson diagonalization with overlap
     ethr =  6.69E-05,  avg # of iterations =  2.5

     total cpu time spent up to now is        4.9 secs

     total energy              =    -333.18165390 Ry
     estimated scf accuracy    <       0.00892267 Ry

     iteration #  7     ecut=    30.00 Ry     beta= 0.70
     Davidson diagonalization with overlap
     ethr =  2.03E-05,  avg # of iterations =  4.2

     total cpu time spent up to now is        5.3 secs

     total energy              =    -333.18464353 Ry
     estimated scf accuracy    <       0.00042067 Ry

     iteration #  8     ecut=    30.00 Ry     beta= 0.70
     Davidson diagonalization with overlap
     ethr =  9.56E-07,  avg # of iterations =  4.2

     total cpu time spent up to now is        5.6 secs

     total energy              =    -333.18456505 Ry
     estimated scf accuracy    <       0.00062584 Ry

     iteration #  9     ecut=    30.00 Ry     beta= 0.70
     Davidson diagonalization with overlap
     ethr =  9.56E-07,  avg # of iterations =  2.0

     total cpu time spent up to now is        6.1 secs

     total energy              =    -333.18451650 Ry
     estimated scf accuracy    <       0.00026281 Ry

     iteration # 10     ecut=    30.00 Ry     beta= 0.70
     Davidson diagonalization with overlap
     ethr =  5.97E-07,  avg # of iterations =  4.2

     total cpu time spent up to now is        6.5 secs

     total energy              =    -333.18458134 Ry
     estimated scf accuracy    <       0.00000333 Ry

     iteration # 11     ecut=    30.00 Ry     beta= 0.70
     Davidson diagonalization with overlap
     ethr =  7.58E-09,  avg # of iterations =  6.2

     total cpu time spent up to now is        7.1 secs

     total energy              =    -333.18458200 Ry
     estimated scf accuracy    <       0.00001396 Ry

     iteration # 12     ecut=    30.00 Ry     beta= 0.70
     Davidson diagonalization with overlap
     ethr =  7.58E-09,  avg # of iterations =  4.5

     total cpu time spent up to now is        7.5 secs

     total energy              =    -333.18458243 Ry
     estimated scf accuracy    <       0.00000160 Ry

     iteration # 13     ecut=    30.00 Ry     beta= 0.70
     Davidson diagonalization with overlap
     ethr =  3.63E-09,  avg # of iterations =  4.5

     total cpu time spent up to now is        7.9 secs

     End of self-consistent calculation

          k = 0.1250 0.1250 0.1250 (  1090 PWs)   bands (ev):

   -44.6582 -21.2666 -21.2650 -21.2650  -6.3273  -5.2508  -5.2508  -3.9510
    -3.9510  -3.9371  -3.7695  -3.7695   4.6705   7.3149   7.3149   8.0947
     9.1556   9.1556   9.9086   9.9811   9.9811  10.1150

          k = 0.1250 0.1250 0.3750 (  1095 PWs)   bands (ev):

   -44.6569 -21.3234 -21.2639 -21.2629  -5.9171  -5.1307  -5.0766  -4.0126
    -3.9461  -3.9339  -3.8681  -3.7380   3.9355   6.8462   7.3485   7.8612
     8.4626   8.7568   9.4009   9.9606  10.1251  10.8811

          k = 0.1250 0.3750 0.3750 (  1087 PWs)   bands (ev):

   -44.6557 -21.3203 -21.3194 -21.2613  -5.7013  -4.9985  -4.9288  -3.9859
    -3.9422  -3.8882  -3.7989  -3.6490   3.5642   6.8206   6.8453   7.1949
     7.5048   8.6867   9.4655   9.4949  10.0566  10.7429

          k = 0.3750 0.3750 0.3750 (  1082 PWs)   bands (ev):

   -44.6544 -21.3176 -21.3172 -21.3172  -5.2969  -5.1242  -5.1242  -3.8971
    -3.8971  -3.6072  -3.5401  -3.5401   4.1829   5.9561   5.9561   6.7240
     7.0363   7.0363   7.9962  10.6975  10.6975  10.7734

     highest occupied level (ev):    10.8811

!    total energy              =    -333.18458274 Ry
     estimated scf accuracy    <          1.6E-09 Ry

     The total energy is the sum of the following terms:
     one-electron contribution =     -76.42036923 Ry
     hartree contribution      =      66.20053106 Ry
     xc contribution           =     -49.64737600 Ry
     ewald contribution        =    -273.31736857 Ry

     convergence has been achieved in  13 iterations

     Forces acting on atoms (cartesian axes, Ry/au):

     atom    1 type  2   force =     0.00000000    0.00000000    0.00000000
     atom    2 type  3   force =     0.00000000    0.00000000    0.00000000
     atom    3 type  1   force =     0.00000000    0.00000000    0.00000000
     atom    4 type  1   force =     0.00000000    0.00000000    0.00000000
     atom    5 type  1   force =     0.00000000    0.00000000    0.00000000

     Total force =     0.000000     Total SCF correction =     0.000000


     Computing stress (Cartesian axis) and pressure

          total   stress  (Ry/bohr**3)                   (kbar)     P=      -15.19
  -0.00010329   0.00000000   0.00000000          -15.19        0.00        0.00
   0.00000000  -0.00010329   0.00000000            0.00      -15.19        0.00
   0.00000000   0.00000000  -0.00010329            0.00        0.00      -15.19


     BFGS Geometry Optimization
     Energy error            =      0.0E+00 Ry
     Gradient error          =      0.0E+00 Ry/Bohr

     bfgs converged in   1 scf cycles and   0 bfgs steps
     (criteria: energy <  1.0E-04 Ry, force <  1.0E-03 Ry/Bohr)

     End of BFGS Geometry Optimization

     Final energy             =    -333.1845827436 Ry
Begin final coordinates

ATOMIC_POSITIONS (angstrom)
Pb               0.0000000000        0.0000000000        0.0000000000    0   0   0
Ti               1.9375000000        1.9375000000        1.9375000000    0   0   0
O                0.0000000000        1.9375000000        1.9375000000
O                1.9375000000        0.0000000000        1.9375000000
O                1.9375000000        1.9375000000        0.0000000000
End final coordinates


     Message from routine punch:
     Nothing written, as per user request (disk_io='none')

     init_run     :      1.21s CPU      1.40s WALL (       1 calls)
     electrons    :      5.19s CPU      6.05s WALL (       1 calls)
     forces       :      0.16s CPU      0.19s WALL (       1 calls)
     stress       :      1.20s CPU      1.28s WALL (       1 calls)

     Called by init_run:
     wfcinit      :      0.07s CPU      0.08s WALL (       1 calls)
     potinit      :      0.11s CPU      0.11s WALL (       1 calls)
     hinit0       :      0.82s CPU      0.95s WALL (       1 calls)

     Called by electrons:
     c_bands      :      1.93s CPU      2.04s WALL (      13 calls)
     sum_band     :      1.69s CPU      2.09s WALL (      13 calls)
     v_of_rho     :      0.06s CPU      0.06s WALL (      14 calls)
     newd         :      1.57s CPU      1.95s WALL (      14 calls)
     mix_rho      :      0.03s CPU      0.03s WALL (      13 calls)

     Called by c_bands:
     init_us_2    :      0.06s CPU      0.06s WALL (     116 calls)
     cegterg      :      1.80s CPU      1.91s WALL (      52 calls)

     Called by *egterg:
     cdiaghg      :      0.21s CPU      0.22s WALL (     270 calls)
     h_psi        :      1.30s CPU      1.40s WALL (     274 calls)
     s_psi        :      0.05s CPU      0.05s WALL (     274 calls)
     g_psi        :      0.01s CPU      0.01s WALL (     218 calls)

     Called by h_psi:
     h_psi:calbec :      0.10s CPU      0.10s WALL (     274 calls)
     vloc_psi     :      1.14s CPU      1.23s WALL (     274 calls)
     add_vuspsi   :      0.06s CPU      0.06s WALL (     274 calls)

     General routines
     calbec       :      0.14s CPU      0.16s WALL (     394 calls)
     fft          :      0.31s CPU      0.31s WALL (      87 calls)
     ffts         :      0.05s CPU      0.05s WALL (      27 calls)
     fftw         :      1.05s CPU      1.13s WALL (    7872 calls)
     interpolate  :      0.06s CPU      0.06s WALL (      14 calls)

     Parallel routines

     PWSCF        :      8.19s CPU      9.39s WALL


   This run was terminated on:  13: 0: 7  21Oct2025            

=------------------------------------------------------------------------------=
   JOB DONE.
=------------------------------------------------------------------------------=
