LAMMPS (22 Jul 2025 - Update 1)
Reading data file ...
  orthogonal box = (0 0 0) to (8.7451919 8.7451919 22.612615)
  1 by 1 by 1 MPI processor grid
  reading atoms ...
  99 atoms
  read_data CPU = 0.001 seconds
WARNING: No fixes with time integration, atoms won't move
For more information see https://docs.lammps.org/err0028 (../verlet.cpp:60)
Generated 0 of 0 mixed pair_coeff terms from geometric mixing rule
Neighbor list info ...
  update: every = 1 steps, delay = 0 steps, check = yes
  max neighbors/atom: 2000, page size: 100000
  master list distance cutoff = 6.5
  ghost atom cutoff = 6.5
  binsize = 3.25, bins = 3 3 7
  1 neighbor lists, perpetual/occasional/extra = 1 0 0
  (1) pair lj/cut, perpetual
      attributes: half, newton on
      pair build: half/bin/atomonly/newton
      stencil: half/bin/3d
      bin: standard
Setting up Verlet run ...
  Unit style    : metal
  Current step  : 0
  Time step     : 0.001
Per MPI rank memory allocation (min/avg/max) = 3.07 | 3.07 | 3.07 Mbytes
   Step         PotEng           Lx             Ly             Lz           Press           Pxx            Pyy            Pzz      
         0  -245.01824      8.7451919      8.7451919      22.612615     -0.4332259     -2244.1553     -2244.1553      4487.011     
Loop time of 1.981e-06 on 1 procs for 0 steps with 99 atoms

151.4% CPU use with 1 MPI tasks x no OpenMP threads

MPI task timing breakdown:
Section |  min time  |  avg time  |  max time  |%varavg| %total
---------------------------------------------------------------
Pair    | 0          | 0          | 0          |   0.0 |  0.00
Neigh   | 0          | 0          | 0          |   0.0 |  0.00
Comm    | 0          | 0          | 0          |   0.0 |  0.00
Output  | 0          | 0          | 0          |   0.0 |  0.00
Modify  | 0          | 0          | 0          |   0.0 |  0.00
Other   |            | 1.981e-06  |            |       |100.00

Nlocal:             99 ave          99 max          99 min
Histogram: 1 0 0 0 0 0 0 0 0 0
Nghost:            530 ave         530 max         530 min
Histogram: 1 0 0 0 0 0 0 0 0 0
Neighs:           2403 ave        2403 max        2403 min
Histogram: 1 0 0 0 0 0 0 0 0 0

Total # of neighbors = 2403
Ave neighs/atom = 24.272727
Neighbor list builds = 0
Dangerous builds = 0
Generated 0 of 0 mixed pair_coeff terms from geometric mixing rule
Setting up cg style minimization ...
  Unit style    : metal
  Current step  : 0
WARNING: Energy due to 3 extra global DOFs will be included in minimizer energies
 (../min.cpp:222)
Per MPI rank memory allocation (min/avg/max) = 4.195 | 4.195 | 4.195 Mbytes
   Step         PotEng           Lx             Ly             Lz           Press           Pxx            Pyy            Pzz      
         0  -245.01824      8.7451919      8.7451919      22.612615     -0.4332259     -2244.1553     -2244.1553      4487.011     
        58  -245.04791      8.7298077      8.7298077      22.612615      9.220561       0.97620092     0.97620092     25.709281    
Loop time of 0.00515137 on 1 procs for 58 steps with 99 atoms

93.1% CPU use with 1 MPI tasks x no OpenMP threads

Minimization stats:
  Stopping criterion = energy tolerance
  Energy initial, next-to-last, final = 
     -245.018240749833  -245.047908823646  -245.047908834767
  Force two-norm initial, final = 3.5140565 0.0039358318
  Force max component initial, final = 2.4223229 0.0010518497
  Final line search alpha, max atom move = 0.17097654 0.00017984162
  Iterations, force evaluations = 58 116

MPI task timing breakdown:
Section |  min time  |  avg time  |  max time  |%varavg| %total
---------------------------------------------------------------
Pair    | 0.0034664  | 0.0034664  | 0.0034664  |   0.0 | 67.29
Neigh   | 0          | 0          | 0          |   0.0 |  0.00
Comm    | 0.00027831 | 0.00027831 | 0.00027831 |   0.0 |  5.40
Output  | 0          | 0          | 0          |   0.0 |  0.00
Modify  | 0          | 0          | 0          |   0.0 |  0.00
Other   |            | 0.001407   |            |       | 27.31

Nlocal:             99 ave          99 max          99 min
Histogram: 1 0 0 0 0 0 0 0 0 0
Nghost:            530 ave         530 max         530 min
Histogram: 1 0 0 0 0 0 0 0 0 0
Neighs:           2403 ave        2403 max        2403 min
Histogram: 1 0 0 0 0 0 0 0 0 0

Total # of neighbors = 2403
Ave neighs/atom = 24.272727
Neighbor list builds = 0
Dangerous builds = 0
Total energy (eV) = -245.047908834767
Number of atoms = 99
Lattice constant (Angstoms) = 8.72980774296354
Total wall time: 0:00:00
