LAMMPS (22 Jul 2025 - Update 1)
Reading data file ...
  orthogonal box = (0 0 0) to (8.7451919 8.7451919 58.7964)
  1 by 1 by 1 MPI processor grid
  reading atoms ...
  126 atoms
  read_data CPU = 0.002 seconds
WARNING: No fixes with time integration, atoms won't move
For more information see https://docs.lammps.org/err0028 (../verlet.cpp:60)
Generated 0 of 0 mixed pair_coeff terms from geometric mixing rule
Neighbor list info ...
  update: every = 1 steps, delay = 0 steps, check = yes
  max neighbors/atom: 2000, page size: 100000
  master list distance cutoff = 6.5
  ghost atom cutoff = 6.5
  binsize = 3.25, bins = 3 3 19
  1 neighbor lists, perpetual/occasional/extra = 1 0 0
  (1) pair lj/cut, perpetual
      attributes: half, newton on
      pair build: half/bin/atomonly/newton
      stencil: half/bin/3d
      bin: standard
Setting up Verlet run ...
  Unit style    : metal
  Current step  : 0
  Time step     : 0.001
Per MPI rank memory allocation (min/avg/max) = 3.081 | 3.081 | 3.081 Mbytes
   Step         PotEng           Lx             Ly             Lz           Press           Pxx            Pyy            Pzz      
         0  -316.15255      8.7451919      8.7451919      58.7964       -0.011275001   -862.96592     -862.96592      1725.898     
Loop time of 1.498e-06 on 1 procs for 0 steps with 126 atoms

133.5% CPU use with 1 MPI tasks x no OpenMP threads

MPI task timing breakdown:
Section |  min time  |  avg time  |  max time  |%varavg| %total
---------------------------------------------------------------
Pair    | 0          | 0          | 0          |   0.0 |  0.00
Neigh   | 0          | 0          | 0          |   0.0 |  0.00
Comm    | 0          | 0          | 0          |   0.0 |  0.00
Output  | 0          | 0          | 0          |   0.0 |  0.00
Modify  | 0          | 0          | 0          |   0.0 |  0.00
Other   |            | 1.498e-06  |            |       |100.00

Nlocal:            126 ave         126 max         126 min
Histogram: 1 0 0 0 0 0 0 0 0 0
Nghost:            665 ave         665 max         665 min
Histogram: 1 0 0 0 0 0 0 0 0 0
Neighs:           3132 ave        3132 max        3132 min
Histogram: 1 0 0 0 0 0 0 0 0 0

Total # of neighbors = 3132
Ave neighs/atom = 24.857143
Neighbor list builds = 0
Dangerous builds = 0
Generated 0 of 0 mixed pair_coeff terms from geometric mixing rule
Setting up cg style minimization ...
  Unit style    : metal
  Current step  : 0
WARNING: Energy due to 3 extra global DOFs will be included in minimizer energies
 (../min.cpp:222)
Per MPI rank memory allocation (min/avg/max) = 4.206 | 4.206 | 4.206 Mbytes
   Step         PotEng           Lx             Ly             Lz           Press           Pxx            Pyy            Pzz      
         0  -316.15255      8.7451919      8.7451919      58.7964       -0.011275001   -862.96592     -862.96592      1725.898     
        66  -316.18037      8.7332289      8.7332289      58.7964        23.120963      0.59425762     0.59425762     68.174373    
Loop time of 0.00809369 on 1 procs for 66 steps with 126 atoms

100.0% CPU use with 1 MPI tasks x no OpenMP threads

Minimization stats:
  Stopping criterion = energy tolerance
  Energy initial, next-to-last, final = 
     -316.152554577871  -316.180367986485  -316.180367990708
  Force two-norm initial, final = 3.5136516 0.004083477
  Force max component initial, final = 2.421992 0.0016655563
  Final line search alpha, max atom move = 0.31014168 0.00051655844
  Iterations, force evaluations = 66 132

MPI task timing breakdown:
Section |  min time  |  avg time  |  max time  |%varavg| %total
---------------------------------------------------------------
Pair    | 0.0054587  | 0.0054587  | 0.0054587  |   0.0 | 67.44
Neigh   | 0          | 0          | 0          |   0.0 |  0.00
Comm    | 0.0004516  | 0.0004516  | 0.0004516  |   0.0 |  5.58
Output  | 0          | 0          | 0          |   0.0 |  0.00
Modify  | 0          | 0          | 0          |   0.0 |  0.00
Other   |            | 0.002183   |            |       | 26.98

Nlocal:            126 ave         126 max         126 min
Histogram: 1 0 0 0 0 0 0 0 0 0
Nghost:            665 ave         665 max         665 min
Histogram: 1 0 0 0 0 0 0 0 0 0
Neighs:           3132 ave        3132 max        3132 min
Histogram: 1 0 0 0 0 0 0 0 0 0

Total # of neighbors = 3132
Ave neighs/atom = 24.857143
Neighbor list builds = 0
Dangerous builds = 0
Total energy (eV) = -316.180367990708
Number of atoms = 126
Lattice constant (Angstoms) = 8.73322892623233
Total wall time: 0:00:00
