LAMMPS (22 Jul 2025 - Update 1)
Reading data file ...
  orthogonal box = (0 0 0) to (8.7451919 7.5735584 18.280839)
  1 by 1 by 1 MPI processor grid
  reading atoms ...
  63 atoms
  read_data CPU = 0.001 seconds
WARNING: No fixes with time integration, atoms won't move
For more information see https://docs.lammps.org/err0028 (../verlet.cpp:60)
Generated 0 of 0 mixed pair_coeff terms from geometric mixing rule
Neighbor list info ...
  update: every = 1 steps, delay = 0 steps, check = yes
  max neighbors/atom: 2000, page size: 100000
  master list distance cutoff = 6.5
  ghost atom cutoff = 6.5
  binsize = 3.25, bins = 3 3 6
  1 neighbor lists, perpetual/occasional/extra = 1 0 0
  (1) pair lj/cut, perpetual
      attributes: half, newton on
      pair build: half/bin/atomonly/newton
      stencil: half/bin/3d
      bin: standard
Setting up Verlet run ...
  Unit style    : metal
  Current step  : 0
  Time step     : 0.001
Per MPI rank memory allocation (min/avg/max) = 3.054 | 3.054 | 3.054 Mbytes
   Step         PotEng           Lx             Ly             Lz           Press           Pxx            Pyy            Pzz      
         0  -127.44116      8.7451919      7.5735584      18.280839      178182.02     -32015.372      468230.37      98331.051    
Loop time of 1.9e-06 on 1 procs for 0 steps with 63 atoms

52.6% CPU use with 1 MPI tasks x no OpenMP threads

MPI task timing breakdown:
Section |  min time  |  avg time  |  max time  |%varavg| %total
---------------------------------------------------------------
Pair    | 0          | 0          | 0          |   0.0 |  0.00
Neigh   | 0          | 0          | 0          |   0.0 |  0.00
Comm    | 0          | 0          | 0          |   0.0 |  0.00
Output  | 0          | 0          | 0          |   0.0 |  0.00
Modify  | 0          | 0          | 0          |   0.0 |  0.00
Other   |            | 1.9e-06    |            |       |100.00

Nlocal:             63 ave          63 max          63 min
Histogram: 1 0 0 0 0 0 0 0 0 0
Nghost:            360 ave         360 max         360 min
Histogram: 1 0 0 0 0 0 0 0 0 0
Neighs:           1620 ave        1620 max        1620 min
Histogram: 1 0 0 0 0 0 0 0 0 0

Total # of neighbors = 1620
Ave neighs/atom = 25.714286
Neighbor list builds = 0
Dangerous builds = 0
Generated 0 of 0 mixed pair_coeff terms from geometric mixing rule
Setting up cg style minimization ...
  Unit style    : metal
  Current step  : 0
WARNING: Energy due to 3 extra global DOFs will be included in minimizer energies
 (../min.cpp:222)
Per MPI rank memory allocation (min/avg/max) = 4.179 | 4.179 | 4.179 Mbytes
   Step         PotEng           Lx             Ly             Lz           Press           Pxx            Pyy            Pzz      
         0  -127.44116      8.7451919      7.5735584      18.280839      178182.02     -32015.372      468230.37      98331.051    
        51  -134.65581      9.0822051      7.8654203      18.280839      14081.31      -125733.04      130957.43      37019.548    
Loop time of 0.00790932 on 1 procs for 51 steps with 63 atoms

99.3% CPU use with 1 MPI tasks x no OpenMP threads

Minimization stats:
  Stopping criterion = linesearch alpha is zero
  Energy initial, next-to-last, final = 
     -127.441161569336  -134.655814911127  -134.655814911127
  Force two-norm initial, final = 238.60835 31.955015
  Force max component initial, final = 164.82599 5.6274288
  Final line search alpha, max atom move = 7.2683884e-12 4.0902338e-11
  Iterations, force evaluations = 51 235

MPI task timing breakdown:
Section |  min time  |  avg time  |  max time  |%varavg| %total
---------------------------------------------------------------
Pair    | 0.0052136  | 0.0052136  | 0.0052136  |   0.0 | 65.92
Neigh   | 0          | 0          | 0          |   0.0 |  0.00
Comm    | 0.00042531 | 0.00042531 | 0.00042531 |   0.0 |  5.38
Output  | 0          | 0          | 0          |   0.0 |  0.00
Modify  | 0          | 0          | 0          |   0.0 |  0.00
Other   |            | 0.00227    |            |       | 28.71

Nlocal:             63 ave          63 max          63 min
Histogram: 1 0 0 0 0 0 0 0 0 0
Nghost:            360 ave         360 max         360 min
Histogram: 1 0 0 0 0 0 0 0 0 0
Neighs:           1620 ave        1620 max        1620 min
Histogram: 1 0 0 0 0 0 0 0 0 0

Total # of neighbors = 1620
Ave neighs/atom = 25.714286
Neighbor list builds = 0
Dangerous builds = 0
Total energy (eV) = -134.655814911127
Number of atoms = 63
Lattice constant (Angstoms) = 9.08220509940529
Total wall time: 0:00:00
