Header of the LAMMPS data file 

863 atoms 
1 atom types

0.0 24.73513808267844  xlo xhi
0.0 24.73513808267844  ylo yhi
0.0 24.73513808267844  zlo zhi

Masses 

1  26.9815385

Atoms # atomic 

1 1 0.00000 0.00000 0.00000 
2 1 0.00000 2.06126 2.06126 
3 1 2.06126 2.06126 0.00000 
4 1 0.00000 0.00000 4.12252 
5 1 0.00000 2.06126 6.18378 
6 1 2.06126 0.00000 6.18378 
7 1 2.06126 2.06126 4.12252 
8 1 0.00000 0.00000 8.24505 
9 1 0.00000 2.06126 10.30631 
10 1 2.06126 0.00000 10.30631 
11 1 2.06126 2.06126 8.24505 
12 1 0.00000 0.00000 12.36757 
13 1 0.00000 2.06126 14.42883 
14 1 2.06126 0.00000 14.42883 
15 1 2.06126 2.06126 12.36757 
16 1 0.00000 0.00000 16.49009 
17 1 0.00000 2.06126 18.55135 
18 1 2.06126 0.00000 18.55135 
19 1 2.06126 2.06126 16.49009 
20 1 0.00000 0.00000 20.61262 
21 1 0.00000 2.06126 22.67388 
22 1 2.06126 0.00000 22.67388 
23 1 2.06126 2.06126 20.61262 
24 1 0.00000 4.12252 0.00000 
25 1 0.00000 6.18378 2.06126 
26 1 2.06126 4.12252 2.06126 
27 1 2.06126 6.18378 0.00000 
28 1 0.00000 4.12252 4.12252 
29 1 0.00000 6.18378 6.18378 
30 1 2.06126 4.12252 6.18378 
31 1 2.06126 6.18378 4.12252 
32 1 0.00000 4.12252 8.24505 
33 1 0.00000 6.18378 10.30631 
34 1 2.06126 4.12252 10.30631 
35 1 2.06126 6.18378 8.24505 
36 1 0.00000 4.12252 12.36757 
37 1 0.00000 6.18378 14.42883 
38 1 2.06126 4.12252 14.42883 
39 1 2.06126 6.18378 12.36757 
40 1 0.00000 4.12252 16.49009 
41 1 0.00000 6.18378 18.55135 
42 1 2.06126 4.12252 18.55135 
43 1 2.06126 6.18378 16.49009 
44 1 0.00000 4.12252 20.61262 
45 1 0.00000 6.18378 22.67388 
46 1 2.06126 4.12252 22.67388 
47 1 2.06126 6.18378 20.61262 
48 1 0.00000 8.24505 0.00000 
49 1 0.00000 10.30631 2.06126 
50 1 2.06126 8.24505 2.06126 
51 1 2.06126 10.30631 0.00000 
52 1 0.00000 8.24505 4.12252 
53 1 0.00000 10.30631 6.18378 
54 1 2.06126 8.24505 6.18378 
55 1 2.06126 10.30631 4.12252 
56 1 0.00000 8.24505 8.24505 
57 1 0.00000 10.30631 10.30631 
58 1 2.06126 8.24505 10.30631 
59 1 2.06126 10.30631 8.24505 
60 1 0.00000 8.24505 12.36757 
61 1 0.00000 10.30631 14.42883 
62 1 2.06126 8.24505 14.42883 
63 1 2.06126 10.30631 12.36757 
64 1 0.00000 8.24505 16.49009 
65 1 0.00000 10.30631 18.55135 
66 1 2.06126 8.24505 18.55135 
67 1 2.06126 10.30631 16.49009 
68 1 0.00000 8.24505 20.61262 
69 1 0.00000 10.30631 22.67388 
70 1 2.06126 8.24505 22.67388 
71 1 2.06126 10.30631 20.61262 
72 1 0.00000 12.36757 0.00000 
73 1 0.00000 14.42883 2.06126 
74 1 2.06126 12.36757 2.06126 
75 1 2.06126 14.42883 0.00000 
76 1 0.00000 12.36757 4.12252 
77 1 0.00000 14.42883 6.18378 
78 1 2.06126 12.36757 6.18378 
79 1 2.06126 14.42883 4.12252 
80 1 0.00000 12.36757 8.24505 
81 1 0.00000 14.42883 10.30631 
82 1 2.06126 12.36757 10.30631 
83 1 2.06126 14.42883 8.24505 
84 1 0.00000 12.36757 12.36757 
85 1 0.00000 14.42883 14.42883 
86 1 2.06126 12.36757 14.42883 
87 1 2.06126 14.42883 12.36757 
88 1 0.00000 12.36757 16.49009 
89 1 0.00000 14.42883 18.55135 
90 1 2.06126 12.36757 18.55135 
91 1 2.06126 14.42883 16.49009 
92 1 0.00000 12.36757 20.61262 
93 1 0.00000 14.42883 22.67388 
94 1 2.06126 12.36757 22.67388 
95 1 2.06126 14.42883 20.61262 
96 1 0.00000 16.49009 0.00000 
97 1 0.00000 18.55135 2.06126 
98 1 2.06126 16.49009 2.06126 
99 1 2.06126 18.55135 0.00000 
100 1 0.00000 16.49009 4.12252 
101 1 0.00000 18.55135 6.18378 
102 1 2.06126 16.49009 6.18378 
103 1 2.06126 18.55135 4.12252 
104 1 0.00000 16.49009 8.24505 
105 1 0.00000 18.55135 10.30631 
106 1 2.06126 16.49009 10.30631 
107 1 2.06126 18.55135 8.24505 
108 1 0.00000 16.49009 12.36757 
109 1 0.00000 18.55135 14.42883 
110 1 2.06126 16.49009 14.42883 
111 1 2.06126 18.55135 12.36757 
112 1 0.00000 16.49009 16.49009 
113 1 0.00000 18.55135 18.55135 
114 1 2.06126 16.49009 18.55135 
115 1 2.06126 18.55135 16.49009 
116 1 0.00000 16.49009 20.61262 
117 1 0.00000 18.55135 22.67388 
118 1 2.06126 16.49009 22.67388 
119 1 2.06126 18.55135 20.61262 
120 1 0.00000 20.61262 0.00000 
121 1 0.00000 22.67388 2.06126 
122 1 2.06126 20.61262 2.06126 
123 1 2.06126 22.67388 0.00000 
124 1 0.00000 20.61262 4.12252 
125 1 0.00000 22.67388 6.18378 
126 1 2.06126 20.61262 6.18378 
127 1 2.06126 22.67388 4.12252 
128 1 0.00000 20.61262 8.24505 
129 1 0.00000 22.67388 10.30631 
130 1 2.06126 20.61262 10.30631 
131 1 2.06126 22.67388 8.24505 
132 1 0.00000 20.61262 12.36757 
133 1 0.00000 22.67388 14.42883 
134 1 2.06126 20.61262 14.42883 
135 1 2.06126 22.67388 12.36757 
136 1 0.00000 20.61262 16.49009 
137 1 0.00000 22.67388 18.55135 
138 1 2.06126 20.61262 18.55135 
139 1 2.06126 22.67388 16.49009 
140 1 0.00000 20.61262 20.61262 
141 1 0.00000 22.67388 22.67388 
142 1 2.06126 20.61262 22.67388 
143 1 2.06126 22.67388 20.61262 
144 1 4.12252 0.00000 0.00000 
145 1 4.12252 2.06126 2.06126 
146 1 6.18378 0.00000 2.06126 
147 1 6.18378 2.06126 0.00000 
148 1 4.12252 0.00000 4.12252 
149 1 4.12252 2.06126 6.18378 
150 1 6.18378 0.00000 6.18378 
151 1 6.18378 2.06126 4.12252 
152 1 4.12252 0.00000 8.24505 
153 1 4.12252 2.06126 10.30631 
154 1 6.18378 0.00000 10.30631 
155 1 6.18378 2.06126 8.24505 
156 1 4.12252 0.00000 12.36757 
157 1 4.12252 2.06126 14.42883 
158 1 6.18378 0.00000 14.42883 
159 1 6.18378 2.06126 12.36757 
160 1 4.12252 0.00000 16.49009 
161 1 4.12252 2.06126 18.55135 
162 1 6.18378 0.00000 18.55135 
163 1 6.18378 2.06126 16.49009 
164 1 4.12252 0.00000 20.61262 
165 1 4.12252 2.06126 22.67388 
166 1 6.18378 0.00000 22.67388 
167 1 6.18378 2.06126 20.61262 
168 1 4.12252 4.12252 0.00000 
169 1 4.12252 6.18378 2.06126 
170 1 6.18378 4.12252 2.06126 
171 1 6.18378 6.18378 0.00000 
172 1 4.12252 4.12252 4.12252 
173 1 4.12252 6.18378 6.18378 
174 1 6.18378 4.12252 6.18378 
175 1 6.18378 6.18378 4.12252 
176 1 4.12252 4.12252 8.24505 
177 1 4.12252 6.18378 10.30631 
178 1 6.18378 4.12252 10.30631 
179 1 6.18378 6.18378 8.24505 
180 1 4.12252 4.12252 12.36757 
181 1 4.12252 6.18378 14.42883 
182 1 6.18378 4.12252 14.42883 
183 1 6.18378 6.18378 12.36757 
184 1 4.12252 4.12252 16.49009 
185 1 4.12252 6.18378 18.55135 
186 1 6.18378 4.12252 18.55135 
187 1 6.18378 6.18378 16.49009 
188 1 4.12252 4.12252 20.61262 
189 1 4.12252 6.18378 22.67388 
190 1 6.18378 4.12252 22.67388 
191 1 6.18378 6.18378 20.61262 
192 1 4.12252 8.24505 0.00000 
193 1 4.12252 10.30631 2.06126 
194 1 6.18378 8.24505 2.06126 
195 1 6.18378 10.30631 0.00000 
196 1 4.12252 8.24505 4.12252 
197 1 4.12252 10.30631 6.18378 
198 1 6.18378 8.24505 6.18378 
199 1 6.18378 10.30631 4.12252 
200 1 4.12252 8.24505 8.24505 
201 1 4.12252 10.30631 10.30631 
202 1 6.18378 8.24505 10.30631 
203 1 6.18378 10.30631 8.24505 
204 1 4.12252 8.24505 12.36757 
205 1 4.12252 10.30631 14.42883 
206 1 6.18378 8.24505 14.42883 
207 1 6.18378 10.30631 12.36757 
208 1 4.12252 8.24505 16.49009 
209 1 4.12252 10.30631 18.55135 
210 1 6.18378 8.24505 18.55135 
211 1 6.18378 10.30631 16.49009 
212 1 4.12252 8.24505 20.61262 
213 1 4.12252 10.30631 22.67388 
214 1 6.18378 8.24505 22.67388 
215 1 6.18378 10.30631 20.61262 
216 1 4.12252 12.36757 0.00000 
217 1 4.12252 14.42883 2.06126 
218 1 6.18378 12.36757 2.06126 
219 1 6.18378 14.42883 0.00000 
220 1 4.12252 12.36757 4.12252 
221 1 4.12252 14.42883 6.18378 
222 1 6.18378 12.36757 6.18378 
223 1 6.18378 14.42883 4.12252 
224 1 4.12252 12.36757 8.24505 
225 1 4.12252 14.42883 10.30631 
226 1 6.18378 12.36757 10.30631 
227 1 6.18378 14.42883 8.24505 
228 1 4.12252 12.36757 12.36757 
229 1 4.12252 14.42883 14.42883 
230 1 6.18378 12.36757 14.42883 
231 1 6.18378 14.42883 12.36757 
232 1 4.12252 12.36757 16.49009 
233 1 4.12252 14.42883 18.55135 
234 1 6.18378 12.36757 18.55135 
235 1 6.18378 14.42883 16.49009 
236 1 4.12252 12.36757 20.61262 
237 1 4.12252 14.42883 22.67388 
238 1 6.18378 12.36757 22.67388 
239 1 6.18378 14.42883 20.61262 
240 1 4.12252 16.49009 0.00000 
241 1 4.12252 18.55135 2.06126 
242 1 6.18378 16.49009 2.06126 
243 1 6.18378 18.55135 0.00000 
244 1 4.12252 16.49009 4.12252 
245 1 4.12252 18.55135 6.18378 
246 1 6.18378 16.49009 6.18378 
247 1 6.18378 18.55135 4.12252 
248 1 4.12252 16.49009 8.24505 
249 1 4.12252 18.55135 10.30631 
250 1 6.18378 16.49009 10.30631 
251 1 6.18378 18.55135 8.24505 
252 1 4.12252 16.49009 12.36757 
253 1 4.12252 18.55135 14.42883 
254 1 6.18378 16.49009 14.42883 
255 1 6.18378 18.55135 12.36757 
256 1 4.12252 16.49009 16.49009 
257 1 4.12252 18.55135 18.55135 
258 1 6.18378 16.49009 18.55135 
259 1 6.18378 18.55135 16.49009 
260 1 4.12252 16.49009 20.61262 
261 1 4.12252 18.55135 22.67388 
262 1 6.18378 16.49009 22.67388 
263 1 6.18378 18.55135 20.61262 
264 1 4.12252 20.61262 0.00000 
265 1 4.12252 22.67388 2.06126 
266 1 6.18378 20.61262 2.06126 
267 1 6.18378 22.67388 0.00000 
268 1 4.12252 20.61262 4.12252 
269 1 4.12252 22.67388 6.18378 
270 1 6.18378 20.61262 6.18378 
271 1 6.18378 22.67388 4.12252 
272 1 4.12252 20.61262 8.24505 
273 1 4.12252 22.67388 10.30631 
274 1 6.18378 20.61262 10.30631 
275 1 6.18378 22.67388 8.24505 
276 1 4.12252 20.61262 12.36757 
277 1 4.12252 22.67388 14.42883 
278 1 6.18378 20.61262 14.42883 
279 1 6.18378 22.67388 12.36757 
280 1 4.12252 20.61262 16.49009 
281 1 4.12252 22.67388 18.55135 
282 1 6.18378 20.61262 18.55135 
283 1 6.18378 22.67388 16.49009 
284 1 4.12252 20.61262 20.61262 
285 1 4.12252 22.67388 22.67388 
286 1 6.18378 20.61262 22.67388 
287 1 6.18378 22.67388 20.61262 
288 1 8.24505 0.00000 0.00000 
289 1 8.24505 2.06126 2.06126 
290 1 10.30631 0.00000 2.06126 
291 1 10.30631 2.06126 0.00000 
292 1 8.24505 0.00000 4.12252 
293 1 8.24505 2.06126 6.18378 
294 1 10.30631 0.00000 6.18378 
295 1 10.30631 2.06126 4.12252 
296 1 8.24505 0.00000 8.24505 
297 1 8.24505 2.06126 10.30631 
298 1 10.30631 0.00000 10.30631 
299 1 10.30631 2.06126 8.24505 
300 1 8.24505 0.00000 12.36757 
301 1 8.24505 2.06126 14.42883 
302 1 10.30631 0.00000 14.42883 
303 1 10.30631 2.06126 12.36757 
304 1 8.24505 0.00000 16.49009 
305 1 8.24505 2.06126 18.55135 
306 1 10.30631 0.00000 18.55135 
307 1 10.30631 2.06126 16.49009 
308 1 8.24505 0.00000 20.61262 
309 1 8.24505 2.06126 22.67388 
310 1 10.30631 0.00000 22.67388 
311 1 10.30631 2.06126 20.61262 
312 1 8.24505 4.12252 0.00000 
313 1 8.24505 6.18378 2.06126 
314 1 10.30631 4.12252 2.06126 
315 1 10.30631 6.18378 0.00000 
316 1 8.24505 4.12252 4.12252 
317 1 8.24505 6.18378 6.18378 
318 1 10.30631 4.12252 6.18378 
319 1 10.30631 6.18378 4.12252 
320 1 8.24505 4.12252 8.24505 
321 1 8.24505 6.18378 10.30631 
322 1 10.30631 4.12252 10.30631 
323 1 10.30631 6.18378 8.24505 
324 1 8.24505 4.12252 12.36757 
325 1 8.24505 6.18378 14.42883 
326 1 10.30631 4.12252 14.42883 
327 1 10.30631 6.18378 12.36757 
328 1 8.24505 4.12252 16.49009 
329 1 8.24505 6.18378 18.55135 
330 1 10.30631 4.12252 18.55135 
331 1 10.30631 6.18378 16.49009 
332 1 8.24505 4.12252 20.61262 
333 1 8.24505 6.18378 22.67388 
334 1 10.30631 4.12252 22.67388 
335 1 10.30631 6.18378 20.61262 
336 1 8.24505 8.24505 0.00000 
337 1 8.24505 10.30631 2.06126 
338 1 10.30631 8.24505 2.06126 
339 1 10.30631 10.30631 0.00000 
340 1 8.24505 8.24505 4.12252 
341 1 8.24505 10.30631 6.18378 
342 1 10.30631 8.24505 6.18378 
343 1 10.30631 10.30631 4.12252 
344 1 8.24505 8.24505 8.24505 
345 1 8.24505 10.30631 10.30631 
346 1 10.30631 8.24505 10.30631 
347 1 10.30631 10.30631 8.24505 
348 1 8.24505 8.24505 12.36757 
349 1 8.24505 10.30631 14.42883 
350 1 10.30631 8.24505 14.42883 
351 1 10.30631 10.30631 12.36757 
352 1 8.24505 8.24505 16.49009 
353 1 8.24505 10.30631 18.55135 
354 1 10.30631 8.24505 18.55135 
355 1 10.30631 10.30631 16.49009 
356 1 8.24505 8.24505 20.61262 
357 1 8.24505 10.30631 22.67388 
358 1 10.30631 8.24505 22.67388 
359 1 10.30631 10.30631 20.61262 
360 1 8.24505 12.36757 0.00000 
361 1 8.24505 14.42883 2.06126 
362 1 10.30631 12.36757 2.06126 
363 1 10.30631 14.42883 0.00000 
364 1 8.24505 12.36757 4.12252 
365 1 8.24505 14.42883 6.18378 
366 1 10.30631 12.36757 6.18378 
367 1 10.30631 14.42883 4.12252 
368 1 8.24505 12.36757 8.24505 
369 1 8.24505 14.42883 10.30631 
370 1 10.30631 12.36757 10.30631 
371 1 10.30631 14.42883 8.24505 
372 1 8.24505 12.36757 12.36757 
373 1 8.24505 14.42883 14.42883 
374 1 10.30631 12.36757 14.42883 
375 1 10.30631 14.42883 12.36757 
376 1 8.24505 12.36757 16.49009 
377 1 8.24505 14.42883 18.55135 
378 1 10.30631 12.36757 18.55135 
379 1 10.30631 14.42883 16.49009 
380 1 8.24505 12.36757 20.61262 
381 1 8.24505 14.42883 22.67388 
382 1 10.30631 12.36757 22.67388 
383 1 10.30631 14.42883 20.61262 
384 1 8.24505 16.49009 0.00000 
385 1 8.24505 18.55135 2.06126 
386 1 10.30631 16.49009 2.06126 
387 1 10.30631 18.55135 0.00000 
388 1 8.24505 16.49009 4.12252 
389 1 8.24505 18.55135 6.18378 
390 1 10.30631 16.49009 6.18378 
391 1 10.30631 18.55135 4.12252 
392 1 8.24505 16.49009 8.24505 
393 1 8.24505 18.55135 10.30631 
394 1 10.30631 16.49009 10.30631 
395 1 10.30631 18.55135 8.24505 
396 1 8.24505 16.49009 12.36757 
397 1 8.24505 18.55135 14.42883 
398 1 10.30631 16.49009 14.42883 
399 1 10.30631 18.55135 12.36757 
400 1 8.24505 16.49009 16.49009 
401 1 8.24505 18.55135 18.55135 
402 1 10.30631 16.49009 18.55135 
403 1 10.30631 18.55135 16.49009 
404 1 8.24505 16.49009 20.61262 
405 1 8.24505 18.55135 22.67388 
406 1 10.30631 16.49009 22.67388 
407 1 10.30631 18.55135 20.61262 
408 1 8.24505 20.61262 0.00000 
409 1 8.24505 22.67388 2.06126 
410 1 10.30631 20.61262 2.06126 
411 1 10.30631 22.67388 0.00000 
412 1 8.24505 20.61262 4.12252 
413 1 8.24505 22.67388 6.18378 
414 1 10.30631 20.61262 6.18378 
415 1 10.30631 22.67388 4.12252 
416 1 8.24505 20.61262 8.24505 
417 1 8.24505 22.67388 10.30631 
418 1 10.30631 20.61262 10.30631 
419 1 10.30631 22.67388 8.24505 
420 1 8.24505 20.61262 12.36757 
421 1 8.24505 22.67388 14.42883 
422 1 10.30631 20.61262 14.42883 
423 1 10.30631 22.67388 12.36757 
424 1 8.24505 20.61262 16.49009 
425 1 8.24505 22.67388 18.55135 
426 1 10.30631 20.61262 18.55135 
427 1 10.30631 22.67388 16.49009 
428 1 8.24505 20.61262 20.61262 
429 1 8.24505 22.67388 22.67388 
430 1 10.30631 20.61262 22.67388 
431 1 10.30631 22.67388 20.61262 
432 1 12.36757 0.00000 0.00000 
433 1 12.36757 2.06126 2.06126 
434 1 14.42883 0.00000 2.06126 
435 1 14.42883 2.06126 0.00000 
436 1 12.36757 0.00000 4.12252 
437 1 12.36757 2.06126 6.18378 
438 1 14.42883 0.00000 6.18378 
439 1 14.42883 2.06126 4.12252 
440 1 12.36757 0.00000 8.24505 
441 1 12.36757 2.06126 10.30631 
442 1 14.42883 0.00000 10.30631 
443 1 14.42883 2.06126 8.24505 
444 1 12.36757 0.00000 12.36757 
445 1 12.36757 2.06126 14.42883 
446 1 14.42883 0.00000 14.42883 
447 1 14.42883 2.06126 12.36757 
448 1 12.36757 0.00000 16.49009 
449 1 12.36757 2.06126 18.55135 
450 1 14.42883 0.00000 18.55135 
451 1 14.42883 2.06126 16.49009 
452 1 12.36757 0.00000 20.61262 
453 1 12.36757 2.06126 22.67388 
454 1 14.42883 0.00000 22.67388 
455 1 14.42883 2.06126 20.61262 
456 1 12.36757 4.12252 0.00000 
457 1 12.36757 6.18378 2.06126 
458 1 14.42883 4.12252 2.06126 
459 1 14.42883 6.18378 0.00000 
460 1 12.36757 4.12252 4.12252 
461 1 12.36757 6.18378 6.18378 
462 1 14.42883 4.12252 6.18378 
463 1 14.42883 6.18378 4.12252 
464 1 12.36757 4.12252 8.24505 
465 1 12.36757 6.18378 10.30631 
466 1 14.42883 4.12252 10.30631 
467 1 14.42883 6.18378 8.24505 
468 1 12.36757 4.12252 12.36757 
469 1 12.36757 6.18378 14.42883 
470 1 14.42883 4.12252 14.42883 
471 1 14.42883 6.18378 12.36757 
472 1 12.36757 4.12252 16.49009 
473 1 12.36757 6.18378 18.55135 
474 1 14.42883 4.12252 18.55135 
475 1 14.42883 6.18378 16.49009 
476 1 12.36757 4.12252 20.61262 
477 1 12.36757 6.18378 22.67388 
478 1 14.42883 4.12252 22.67388 
479 1 14.42883 6.18378 20.61262 
480 1 12.36757 8.24505 0.00000 
481 1 12.36757 10.30631 2.06126 
482 1 14.42883 8.24505 2.06126 
483 1 14.42883 10.30631 0.00000 
484 1 12.36757 8.24505 4.12252 
485 1 12.36757 10.30631 6.18378 
486 1 14.42883 8.24505 6.18378 
487 1 14.42883 10.30631 4.12252 
488 1 12.36757 8.24505 8.24505 
489 1 12.36757 10.30631 10.30631 
490 1 14.42883 8.24505 10.30631 
491 1 14.42883 10.30631 8.24505 
492 1 12.36757 8.24505 12.36757 
493 1 12.36757 10.30631 14.42883 
494 1 14.42883 8.24505 14.42883 
495 1 14.42883 10.30631 12.36757 
496 1 12.36757 8.24505 16.49009 
497 1 12.36757 10.30631 18.55135 
498 1 14.42883 8.24505 18.55135 
499 1 14.42883 10.30631 16.49009 
500 1 12.36757 8.24505 20.61262 
501 1 12.36757 10.30631 22.67388 
502 1 14.42883 8.24505 22.67388 
503 1 14.42883 10.30631 20.61262 
504 1 12.36757 12.36757 0.00000 
505 1 12.36757 14.42883 2.06126 
506 1 14.42883 12.36757 2.06126 
507 1 14.42883 14.42883 0.00000 
508 1 12.36757 12.36757 4.12252 
509 1 12.36757 14.42883 6.18378 
510 1 14.42883 12.36757 6.18378 
511 1 14.42883 14.42883 4.12252 
512 1 12.36757 12.36757 8.24505 
513 1 12.36757 14.42883 10.30631 
514 1 14.42883 12.36757 10.30631 
515 1 14.42883 14.42883 8.24505 
516 1 12.36757 12.36757 12.36757 
517 1 12.36757 14.42883 14.42883 
518 1 14.42883 12.36757 14.42883 
519 1 14.42883 14.42883 12.36757 
520 1 12.36757 12.36757 16.49009 
521 1 12.36757 14.42883 18.55135 
522 1 14.42883 12.36757 18.55135 
523 1 14.42883 14.42883 16.49009 
524 1 12.36757 12.36757 20.61262 
525 1 12.36757 14.42883 22.67388 
526 1 14.42883 12.36757 22.67388 
527 1 14.42883 14.42883 20.61262 
528 1 12.36757 16.49009 0.00000 
529 1 12.36757 18.55135 2.06126 
530 1 14.42883 16.49009 2.06126 
531 1 14.42883 18.55135 0.00000 
532 1 12.36757 16.49009 4.12252 
533 1 12.36757 18.55135 6.18378 
534 1 14.42883 16.49009 6.18378 
535 1 14.42883 18.55135 4.12252 
536 1 12.36757 16.49009 8.24505 
537 1 12.36757 18.55135 10.30631 
538 1 14.42883 16.49009 10.30631 
539 1 14.42883 18.55135 8.24505 
540 1 12.36757 16.49009 12.36757 
541 1 12.36757 18.55135 14.42883 
542 1 14.42883 16.49009 14.42883 
543 1 14.42883 18.55135 12.36757 
544 1 12.36757 16.49009 16.49009 
545 1 12.36757 18.55135 18.55135 
546 1 14.42883 16.49009 18.55135 
547 1 14.42883 18.55135 16.49009 
548 1 12.36757 16.49009 20.61262 
549 1 12.36757 18.55135 22.67388 
550 1 14.42883 16.49009 22.67388 
551 1 14.42883 18.55135 20.61262 
552 1 12.36757 20.61262 0.00000 
553 1 12.36757 22.67388 2.06126 
554 1 14.42883 20.61262 2.06126 
555 1 14.42883 22.67388 0.00000 
556 1 12.36757 20.61262 4.12252 
557 1 12.36757 22.67388 6.18378 
558 1 14.42883 20.61262 6.18378 
559 1 14.42883 22.67388 4.12252 
560 1 12.36757 20.61262 8.24505 
561 1 12.36757 22.67388 10.30631 
562 1 14.42883 20.61262 10.30631 
563 1 14.42883 22.67388 8.24505 
564 1 12.36757 20.61262 12.36757 
565 1 12.36757 22.67388 14.42883 
566 1 14.42883 20.61262 14.42883 
567 1 14.42883 22.67388 12.36757 
568 1 12.36757 20.61262 16.49009 
569 1 12.36757 22.67388 18.55135 
570 1 14.42883 20.61262 18.55135 
571 1 14.42883 22.67388 16.49009 
572 1 12.36757 20.61262 20.61262 
573 1 12.36757 22.67388 22.67388 
574 1 14.42883 20.61262 22.67388 
575 1 14.42883 22.67388 20.61262 
576 1 16.49009 0.00000 0.00000 
577 1 16.49009 2.06126 2.06126 
578 1 18.55135 0.00000 2.06126 
579 1 18.55135 2.06126 0.00000 
580 1 16.49009 0.00000 4.12252 
581 1 16.49009 2.06126 6.18378 
582 1 18.55135 0.00000 6.18378 
583 1 18.55135 2.06126 4.12252 
584 1 16.49009 0.00000 8.24505 
585 1 16.49009 2.06126 10.30631 
586 1 18.55135 0.00000 10.30631 
587 1 18.55135 2.06126 8.24505 
588 1 16.49009 0.00000 12.36757 
589 1 16.49009 2.06126 14.42883 
590 1 18.55135 0.00000 14.42883 
591 1 18.55135 2.06126 12.36757 
592 1 16.49009 0.00000 16.49009 
593 1 16.49009 2.06126 18.55135 
594 1 18.55135 0.00000 18.55135 
595 1 18.55135 2.06126 16.49009 
596 1 16.49009 0.00000 20.61262 
597 1 16.49009 2.06126 22.67388 
598 1 18.55135 0.00000 22.67388 
599 1 18.55135 2.06126 20.61262 
600 1 16.49009 4.12252 0.00000 
601 1 16.49009 6.18378 2.06126 
602 1 18.55135 4.12252 2.06126 
603 1 18.55135 6.18378 0.00000 
604 1 16.49009 4.12252 4.12252 
605 1 16.49009 6.18378 6.18378 
606 1 18.55135 4.12252 6.18378 
607 1 18.55135 6.18378 4.12252 
608 1 16.49009 4.12252 8.24505 
609 1 16.49009 6.18378 10.30631 
610 1 18.55135 4.12252 10.30631 
611 1 18.55135 6.18378 8.24505 
612 1 16.49009 4.12252 12.36757 
613 1 16.49009 6.18378 14.42883 
614 1 18.55135 4.12252 14.42883 
615 1 18.55135 6.18378 12.36757 
616 1 16.49009 4.12252 16.49009 
617 1 16.49009 6.18378 18.55135 
618 1 18.55135 4.12252 18.55135 
619 1 18.55135 6.18378 16.49009 
620 1 16.49009 4.12252 20.61262 
621 1 16.49009 6.18378 22.67388 
622 1 18.55135 4.12252 22.67388 
623 1 18.55135 6.18378 20.61262 
624 1 16.49009 8.24505 0.00000 
625 1 16.49009 10.30631 2.06126 
626 1 18.55135 8.24505 2.06126 
627 1 18.55135 10.30631 0.00000 
628 1 16.49009 8.24505 4.12252 
629 1 16.49009 10.30631 6.18378 
630 1 18.55135 8.24505 6.18378 
631 1 18.55135 10.30631 4.12252 
632 1 16.49009 8.24505 8.24505 
633 1 16.49009 10.30631 10.30631 
634 1 18.55135 8.24505 10.30631 
635 1 18.55135 10.30631 8.24505 
636 1 16.49009 8.24505 12.36757 
637 1 16.49009 10.30631 14.42883 
638 1 18.55135 8.24505 14.42883 
639 1 18.55135 10.30631 12.36757 
640 1 16.49009 8.24505 16.49009 
641 1 16.49009 10.30631 18.55135 
642 1 18.55135 8.24505 18.55135 
643 1 18.55135 10.30631 16.49009 
644 1 16.49009 8.24505 20.61262 
645 1 16.49009 10.30631 22.67388 
646 1 18.55135 8.24505 22.67388 
647 1 18.55135 10.30631 20.61262 
648 1 16.49009 12.36757 0.00000 
649 1 16.49009 14.42883 2.06126 
650 1 18.55135 12.36757 2.06126 
651 1 18.55135 14.42883 0.00000 
652 1 16.49009 12.36757 4.12252 
653 1 16.49009 14.42883 6.18378 
654 1 18.55135 12.36757 6.18378 
655 1 18.55135 14.42883 4.12252 
656 1 16.49009 12.36757 8.24505 
657 1 16.49009 14.42883 10.30631 
658 1 18.55135 12.36757 10.30631 
659 1 18.55135 14.42883 8.24505 
660 1 16.49009 12.36757 12.36757 
661 1 16.49009 14.42883 14.42883 
662 1 18.55135 12.36757 14.42883 
663 1 18.55135 14.42883 12.36757 
664 1 16.49009 12.36757 16.49009 
665 1 16.49009 14.42883 18.55135 
666 1 18.55135 12.36757 18.55135 
667 1 18.55135 14.42883 16.49009 
668 1 16.49009 12.36757 20.61262 
669 1 16.49009 14.42883 22.67388 
670 1 18.55135 12.36757 22.67388 
671 1 18.55135 14.42883 20.61262 
672 1 16.49009 16.49009 0.00000 
673 1 16.49009 18.55135 2.06126 
674 1 18.55135 16.49009 2.06126 
675 1 18.55135 18.55135 0.00000 
676 1 16.49009 16.49009 4.12252 
677 1 16.49009 18.55135 6.18378 
678 1 18.55135 16.49009 6.18378 
679 1 18.55135 18.55135 4.12252 
680 1 16.49009 16.49009 8.24505 
681 1 16.49009 18.55135 10.30631 
682 1 18.55135 16.49009 10.30631 
683 1 18.55135 18.55135 8.24505 
684 1 16.49009 16.49009 12.36757 
685 1 16.49009 18.55135 14.42883 
686 1 18.55135 16.49009 14.42883 
687 1 18.55135 18.55135 12.36757 
688 1 16.49009 16.49009 16.49009 
689 1 16.49009 18.55135 18.55135 
690 1 18.55135 16.49009 18.55135 
691 1 18.55135 18.55135 16.49009 
692 1 16.49009 16.49009 20.61262 
693 1 16.49009 18.55135 22.67388 
694 1 18.55135 16.49009 22.67388 
695 1 18.55135 18.55135 20.61262 
696 1 16.49009 20.61262 0.00000 
697 1 16.49009 22.67388 2.06126 
698 1 18.55135 20.61262 2.06126 
699 1 18.55135 22.67388 0.00000 
700 1 16.49009 20.61262 4.12252 
701 1 16.49009 22.67388 6.18378 
702 1 18.55135 20.61262 6.18378 
703 1 18.55135 22.67388 4.12252 
704 1 16.49009 20.61262 8.24505 
705 1 16.49009 22.67388 10.30631 
706 1 18.55135 20.61262 10.30631 
707 1 18.55135 22.67388 8.24505 
708 1 16.49009 20.61262 12.36757 
709 1 16.49009 22.67388 14.42883 
710 1 18.55135 20.61262 14.42883 
711 1 18.55135 22.67388 12.36757 
712 1 16.49009 20.61262 16.49009 
713 1 16.49009 22.67388 18.55135 
714 1 18.55135 20.61262 18.55135 
715 1 18.55135 22.67388 16.49009 
716 1 16.49009 20.61262 20.61262 
717 1 16.49009 22.67388 22.67388 
718 1 18.55135 20.61262 22.67388 
719 1 18.55135 22.67388 20.61262 
720 1 20.61262 0.00000 0.00000 
721 1 20.61262 2.06126 2.06126 
722 1 22.67388 0.00000 2.06126 
723 1 22.67388 2.06126 0.00000 
724 1 20.61262 0.00000 4.12252 
725 1 20.61262 2.06126 6.18378 
726 1 22.67388 0.00000 6.18378 
727 1 22.67388 2.06126 4.12252 
728 1 20.61262 0.00000 8.24505 
729 1 20.61262 2.06126 10.30631 
730 1 22.67388 0.00000 10.30631 
731 1 22.67388 2.06126 8.24505 
732 1 20.61262 0.00000 12.36757 
733 1 20.61262 2.06126 14.42883 
734 1 22.67388 0.00000 14.42883 
735 1 22.67388 2.06126 12.36757 
736 1 20.61262 0.00000 16.49009 
737 1 20.61262 2.06126 18.55135 
738 1 22.67388 0.00000 18.55135 
739 1 22.67388 2.06126 16.49009 
740 1 20.61262 0.00000 20.61262 
741 1 20.61262 2.06126 22.67388 
742 1 22.67388 0.00000 22.67388 
743 1 22.67388 2.06126 20.61262 
744 1 20.61262 4.12252 0.00000 
745 1 20.61262 6.18378 2.06126 
746 1 22.67388 4.12252 2.06126 
747 1 22.67388 6.18378 0.00000 
748 1 20.61262 4.12252 4.12252 
749 1 20.61262 6.18378 6.18378 
750 1 22.67388 4.12252 6.18378 
751 1 22.67388 6.18378 4.12252 
752 1 20.61262 4.12252 8.24505 
753 1 20.61262 6.18378 10.30631 
754 1 22.67388 4.12252 10.30631 
755 1 22.67388 6.18378 8.24505 
756 1 20.61262 4.12252 12.36757 
757 1 20.61262 6.18378 14.42883 
758 1 22.67388 4.12252 14.42883 
759 1 22.67388 6.18378 12.36757 
760 1 20.61262 4.12252 16.49009 
761 1 20.61262 6.18378 18.55135 
762 1 22.67388 4.12252 18.55135 
763 1 22.67388 6.18378 16.49009 
764 1 20.61262 4.12252 20.61262 
765 1 20.61262 6.18378 22.67388 
766 1 22.67388 4.12252 22.67388 
767 1 22.67388 6.18378 20.61262 
768 1 20.61262 8.24505 0.00000 
769 1 20.61262 10.30631 2.06126 
770 1 22.67388 8.24505 2.06126 
771 1 22.67388 10.30631 0.00000 
772 1 20.61262 8.24505 4.12252 
773 1 20.61262 10.30631 6.18378 
774 1 22.67388 8.24505 6.18378 
775 1 22.67388 10.30631 4.12252 
776 1 20.61262 8.24505 8.24505 
777 1 20.61262 10.30631 10.30631 
778 1 22.67388 8.24505 10.30631 
779 1 22.67388 10.30631 8.24505 
780 1 20.61262 8.24505 12.36757 
781 1 20.61262 10.30631 14.42883 
782 1 22.67388 8.24505 14.42883 
783 1 22.67388 10.30631 12.36757 
784 1 20.61262 8.24505 16.49009 
785 1 20.61262 10.30631 18.55135 
786 1 22.67388 8.24505 18.55135 
787 1 22.67388 10.30631 16.49009 
788 1 20.61262 8.24505 20.61262 
789 1 20.61262 10.30631 22.67388 
790 1 22.67388 8.24505 22.67388 
791 1 22.67388 10.30631 20.61262 
792 1 20.61262 12.36757 0.00000 
793 1 20.61262 14.42883 2.06126 
794 1 22.67388 12.36757 2.06126 
795 1 22.67388 14.42883 0.00000 
796 1 20.61262 12.36757 4.12252 
797 1 20.61262 14.42883 6.18378 
798 1 22.67388 12.36757 6.18378 
799 1 22.67388 14.42883 4.12252 
800 1 20.61262 12.36757 8.24505 
801 1 20.61262 14.42883 10.30631 
802 1 22.67388 12.36757 10.30631 
803 1 22.67388 14.42883 8.24505 
804 1 20.61262 12.36757 12.36757 
805 1 20.61262 14.42883 14.42883 
806 1 22.67388 12.36757 14.42883 
807 1 22.67388 14.42883 12.36757 
808 1 20.61262 12.36757 16.49009 
809 1 20.61262 14.42883 18.55135 
810 1 22.67388 12.36757 18.55135 
811 1 22.67388 14.42883 16.49009 
812 1 20.61262 12.36757 20.61262 
813 1 20.61262 14.42883 22.67388 
814 1 22.67388 12.36757 22.67388 
815 1 22.67388 14.42883 20.61262 
816 1 20.61262 16.49009 0.00000 
817 1 20.61262 18.55135 2.06126 
818 1 22.67388 16.49009 2.06126 
819 1 22.67388 18.55135 0.00000 
820 1 20.61262 16.49009 4.12252 
821 1 20.61262 18.55135 6.18378 
822 1 22.67388 16.49009 6.18378 
823 1 22.67388 18.55135 4.12252 
824 1 20.61262 16.49009 8.24505 
825 1 20.61262 18.55135 10.30631 
826 1 22.67388 16.49009 10.30631 
827 1 22.67388 18.55135 8.24505 
828 1 20.61262 16.49009 12.36757 
829 1 20.61262 18.55135 14.42883 
830 1 22.67388 16.49009 14.42883 
831 1 22.67388 18.55135 12.36757 
832 1 20.61262 16.49009 16.49009 
833 1 20.61262 18.55135 18.55135 
834 1 22.67388 16.49009 18.55135 
835 1 22.67388 18.55135 16.49009 
836 1 20.61262 16.49009 20.61262 
837 1 20.61262 18.55135 22.67388 
838 1 22.67388 16.49009 22.67388 
839 1 22.67388 18.55135 20.61262 
840 1 20.61262 20.61262 0.00000 
841 1 20.61262 22.67388 2.06126 
842 1 22.67388 20.61262 2.06126 
843 1 22.67388 22.67388 0.00000 
844 1 20.61262 20.61262 4.12252 
845 1 20.61262 22.67388 6.18378 
846 1 22.67388 20.61262 6.18378 
847 1 22.67388 22.67388 4.12252 
848 1 20.61262 20.61262 8.24505 
849 1 20.61262 22.67388 10.30631 
850 1 22.67388 20.61262 10.30631 
851 1 22.67388 22.67388 8.24505 
852 1 20.61262 20.61262 12.36757 
853 1 20.61262 22.67388 14.42883 
854 1 22.67388 20.61262 14.42883 
855 1 22.67388 22.67388 12.36757 
856 1 20.61262 20.61262 16.49009 
857 1 20.61262 22.67388 18.55135 
858 1 22.67388 20.61262 18.55135 
859 1 22.67388 22.67388 16.49009 
860 1 20.61262 20.61262 20.61262 
861 1 20.61262 22.67388 22.67388 
862 1 22.67388 20.61262 22.67388 
863 1 22.67388 22.67388 20.61262 
