LAMMPS (22 Jul 2025 - Update 1)
Reading data file ...
  orthogonal box = (0 0 0) to (24.735138 24.735138 24.735138)
  1 by 1 by 1 MPI processor grid
  reading atoms ...
  863 atoms
  read_data CPU = 0.004 seconds
WARNING: No fixes with time integration, atoms won't move
For more information see https://docs.lammps.org/err0028 (../verlet.cpp:60)
Generated 0 of 0 mixed pair_coeff terms from geometric mixing rule
Neighbor list info ...
  update: every = 1 steps, delay = 0 steps, check = yes
  max neighbors/atom: 2000, page size: 100000
  master list distance cutoff = 6.5
  ghost atom cutoff = 6.5
  binsize = 3.25, bins = 8 8 8
  1 neighbor lists, perpetual/occasional/extra = 1 0 0
  (1) pair lj/cut, perpetual
      attributes: half, newton on
      pair build: half/bin/atomonly/newton
      stencil: half/bin/3d
      bin: standard
Setting up Verlet run ...
  Unit style    : metal
  Current step  : 0
  Time step     : 0.001
Per MPI rank memory allocation (min/avg/max) = 3.174 | 3.174 | 3.174 Mbytes
   Step         PotEng           Lx             Ly             Lz           Press           Pxx            Pyy            Pzz      
         0  -2271.0292      24.735138      24.735138      24.735138     -0.01172958    -0.011214708   -0.012759325   -0.011214708  
Loop time of 1.44e-06 on 1 procs for 0 steps with 863 atoms

138.9% CPU use with 1 MPI tasks x no OpenMP threads

MPI task timing breakdown:
Section |  min time  |  avg time  |  max time  |%varavg| %total
---------------------------------------------------------------
Pair    | 0          | 0          | 0          |   0.0 |  0.00
Neigh   | 0          | 0          | 0          |   0.0 |  0.00
Comm    | 0          | 0          | 0          |   0.0 |  0.00
Output  | 0          | 0          | 0          |   0.0 |  0.00
Modify  | 0          | 0          | 0          |   0.0 |  0.00
Other   |            | 1.44e-06   |            |       |100.00

Nlocal:            863 ave         863 max         863 min
Histogram: 1 0 0 0 0 0 0 0 0 0
Nghost:           2558 ave        2558 max        2558 min
Histogram: 1 0 0 0 0 0 0 0 0 0
Neighs:          23274 ave       23274 max       23274 min
Histogram: 1 0 0 0 0 0 0 0 0 0

Total # of neighbors = 23274
Ave neighs/atom = 26.968714
Neighbor list builds = 0
Dangerous builds = 0
Generated 0 of 0 mixed pair_coeff terms from geometric mixing rule
Setting up cg style minimization ...
  Unit style    : metal
  Current step  : 0
WARNING: Energy due to 1 extra global DOFs will be included in minimizer energies
 (../min.cpp:222)
Per MPI rank memory allocation (min/avg/max) = 4.299 | 4.299 | 4.299 Mbytes
   Step         PotEng           Lx             Ly             Lz           Press           Pxx            Pyy            Pzz      
         0  -2271.0292      24.735138      24.735138      24.735138     -0.01172958    -0.011214708   -0.012759325   -0.011214708  
        28  -2271.0373      24.734996      24.734996      24.734996      0.37010036     0.37014823     0.37000461     0.37014823   
Loop time of 0.0205157 on 1 procs for 28 steps with 863 atoms

99.3% CPU use with 1 MPI tasks x no OpenMP threads

Minimization stats:
  Stopping criterion = energy tolerance
  Energy initial, next-to-last, final = 
     -2271.02920891049  -2271.03734788883  -2271.03734789079
  Force two-norm initial, final = 0.4523698 0.016320387
  Force max component initial, final = 0.13063076 0.010487414
  Final line search alpha, max atom move = 0.068754265 0.00072105446
  Iterations, force evaluations = 28 56

MPI task timing breakdown:
Section |  min time  |  avg time  |  max time  |%varavg| %total
---------------------------------------------------------------
Pair    | 0.015943   | 0.015943   | 0.015943   |   0.0 | 77.71
Neigh   | 0          | 0          | 0          |   0.0 |  0.00
Comm    | 0.00067556 | 0.00067556 | 0.00067556 |   0.0 |  3.29
Output  | 0          | 0          | 0          |   0.0 |  0.00
Modify  | 0          | 0          | 0          |   0.0 |  0.00
Other   |            | 0.003897   |            |       | 18.99

Nlocal:            863 ave         863 max         863 min
Histogram: 1 0 0 0 0 0 0 0 0 0
Nghost:           2558 ave        2558 max        2558 min
Histogram: 1 0 0 0 0 0 0 0 0 0
Neighs:          23274 ave       23274 max       23274 min
Histogram: 1 0 0 0 0 0 0 0 0 0

Total # of neighbors = 23274
Ave neighs/atom = 26.968714
Neighbor list builds = 0
Dangerous builds = 0
Total energy (eV) = -2271.03734789079
Number of atoms = 863
Lattice constant (Angstoms) = 24.7349958576863
Total wall time: 0:00:00
