
     Program PWSCF v.7.4.1 starts on  7Oct2025 at 23:58: 9 

     This program is part of the open-source Quantum ESPRESSO suite
     for quantum simulation of materials; please cite
         "P. Giannozzi et al., J. Phys.:Condens. Matter 21 395502 (2009);
         "P. Giannozzi et al., J. Phys.:Condens. Matter 29 465901 (2017);
         "P. Giannozzi et al., J. Chem. Phys. 152 154105 (2020);
          URL http://www.quantum-espresso.org", 
     in publications or presentations arising from this work. More details at
     http://www.quantum-espresso.org/quote

     Parallel version (MPI), running on     1 processors

     MPI processes distributed on     1 nodes
     220 MiB available memory on the printing compute node when the environment starts

     Waiting for input...
     Reading input from standard input
Warning: card &CELL ignored
Warning: card / ignored

     Current dimensions of program PWSCF are:
     Max number of different atomic species (ntypx) = 10
     Max number of k-points (npk) =  40000
     Max angular momentum in pseudopotentials (lmaxx) =  4
     Message from routine setup:
     using ibrav=0 with symmetry is DISCOURAGED, use correct ibrav instead

     Subspace diagonalization in iterative solution of the eigenvalue problem:
     a serial algorithm will be used


     G-vector sticks info
     --------------------
     sticks:   dense  smooth     PW     G-vecs:    dense   smooth      PW
     Sum        1099    1099    313                24045    24045    3767

     Using Slab Decomposition



     bravais-lattice index     =            0
     lattice parameter (alat)  =       7.5604  a.u.
     unit-cell volume          =     305.5804 (a.u.)^3
     number of atoms/cell      =            2
     number of atomic types    =            1
     number of electrons       =        28.00
     number of Kohn-Sham states=           14
     kinetic-energy cutoff     =      70.0000  Ry
     charge density cutoff     =     280.0000  Ry
     scf convergence threshold =      1.0E-07
     mixing beta               =       0.5000
     number of iterations used =            8  plain     mixing
     Exchange-correlation=  SLA  PZ   NOGX NOGC
                           (   1   1   0   0   0   0   0)

     celldm(1)=   7.560435  celldm(2)=   0.000000  celldm(3)=   0.000000
     celldm(4)=   0.000000  celldm(5)=   0.000000  celldm(6)=   0.000000

     crystal axes: (cart. coord. in units of alat)
               a(1) = (   0.000000   0.707107   0.707107 )  
               a(2) = (   0.707107   0.000000   0.707107 )  
               a(3) = (   0.707107   0.707107   0.000000 )  

     reciprocal axes: (cart. coord. in units 2 pi/alat)
               b(1) = ( -0.707107  0.707107  0.707107 )  
               b(2) = (  0.707107 -0.707107  0.707107 )  
               b(3) = (  0.707107  0.707107 -0.707107 )  


     PseudoPot. # 1 for Ge read from file:
     /home/bond/Software/QE/qe-7.4.1/pseudo/ge_lda_v1.4.uspp.F.UPF
     MD5 check sum: bf9d52b59cc8a669818bb2b52e0c2ba0
     Pseudo is Ultrasoft + core correction, Zval = 14.0
     Generated by new atomic code, or converted to UPF format
     Using radial grid of  873 points,  6 beta functions with: 
                l(1) =   0
                l(2) =   0
                l(3) =   1
                l(4) =   1
                l(5) =   2
                l(6) =   2
     Q(r) pseudized with  8 coefficients,  rinner =    1.400   1.400   1.400
                                                       1.400   1.400

     atomic species   valence    mass     pseudopotential
     Ge               14.00    72.63000     Ge( 1.00)

     48 Sym. Ops., with inversion, found (24 have fractional translation)



   Cartesian axes

     site n.     atom                  positions (alat units)
         1        Ge     tau(   1) = (   0.0000000   0.0000000   0.0000000  )
         2        Ge     tau(   2) = (   0.3535534   0.3535534   0.3535534  )

     number of k points=     8
                       cart. coord. in units 2pi/alat
        k(    1) = (   0.0000000   0.0000000   0.0000000), wk =   0.0312500
        k(    2) = (   0.1767767   0.1767767  -0.1767767), wk =   0.2500000
        k(    3) = (  -0.3535534  -0.3535534   0.3535534), wk =   0.1250000
        k(    4) = (   0.3535534   0.0000000   0.0000000), wk =   0.1875000
        k(    5) = (  -0.1767767  -0.5303301   0.5303301), wk =   0.7500000
        k(    6) = (   0.0000000  -0.3535534   0.3535534), wk =   0.3750000
        k(    7) = (  -0.7071068   0.0000000   0.0000000), wk =   0.0937500
        k(    8) = (  -0.7071068   0.3535534   0.0000000), wk =   0.1875000

     Dense  grid:    24045 G-vectors     FFT dimensions: (  48,  48,  48)

     Estimated max dynamical RAM per process >     100.15 MB

     Initial potential from superposition of free atoms

     starting charge      27.9986, renormalised to      28.0000
     Starting wfcs are   18 randomized atomic wfcs

     total cpu time spent up to now is        1.7 secs

     Self-consistent Calculation

     iteration #  1     ecut=    70.00 Ry     beta= 0.50
     Davidson diagonalization with overlap
     ethr =  1.00E-02,  avg # of iterations =  1.9

     Threshold (ethr) on eigenvalues was too large:
     Diagonalizing with lowered threshold

     Davidson diagonalization with overlap
     ethr =  1.32E-04,  avg # of iterations =  1.9

     total cpu time spent up to now is        3.8 secs

     total energy              =    -426.15284525 Ry
     estimated scf accuracy    <       0.03929614 Ry

     iteration #  2     ecut=    70.00 Ry     beta= 0.50
     Davidson diagonalization with overlap
     ethr =  1.40E-04,  avg # of iterations =  1.1

     total cpu time spent up to now is        4.9 secs

     total energy              =    -426.15129715 Ry
     estimated scf accuracy    <       0.00697373 Ry

     iteration #  3     ecut=    70.00 Ry     beta= 0.50
     Davidson diagonalization with overlap
     ethr =  2.49E-05,  avg # of iterations =  2.0

     total cpu time spent up to now is        6.1 secs

     total energy              =    -426.15179980 Ry
     estimated scf accuracy    <       0.00007513 Ry

     iteration #  4     ecut=    70.00 Ry     beta= 0.50
     Davidson diagonalization with overlap
     ethr =  2.68E-07,  avg # of iterations =  3.9

     total cpu time spent up to now is        7.4 secs

     total energy              =    -426.15182055 Ry
     estimated scf accuracy    <       0.00000337 Ry

     iteration #  5     ecut=    70.00 Ry     beta= 0.50
     Davidson diagonalization with overlap
     ethr =  1.20E-08,  avg # of iterations =  3.2

     total cpu time spent up to now is        8.8 secs

     total energy              =    -426.15182151 Ry
     estimated scf accuracy    <       0.00000019 Ry

     iteration #  6     ecut=    70.00 Ry     beta= 0.50
     Davidson diagonalization with overlap
     ethr =  6.68E-10,  avg # of iterations =  2.9

     total cpu time spent up to now is       10.0 secs

     End of self-consistent calculation

          k = 0.0000 0.0000 0.0000 (  2975 PWs)   bands (ev):

   -16.6789 -16.6789 -16.6789 -16.6429 -16.6429 -16.4317 -16.4317 -16.4317
   -16.4184 -16.4184  -4.6287   8.0075   8.1965   8.1965

          k = 0.1768 0.1768-0.1768 (  3001 PWs)   bands (ev):

   -16.6972 -16.6972 -16.6703 -16.6143 -16.6143 -16.4575 -16.4575 -16.4419
   -16.3979 -16.3979  -3.8866   3.4148   7.3104   7.3104

          k =-0.3536-0.3536 0.3536 (  2998 PWs)   bands (ev):

   -16.7035 -16.7035 -16.6614 -16.6009 -16.6009 -16.4663 -16.4663 -16.4524
   -16.3910 -16.3910  -2.5398   0.5410   6.7883   6.7883

          k = 0.3536 0.0000 0.0000 (  3042 PWs)   bands (ev):

   -16.6973 -16.6973 -16.6854 -16.6087 -16.5735 -16.5190 -16.4500 -16.4057
   -16.4031 -16.4031  -3.6188   3.4064   6.1508   6.1508

          k =-0.1768-0.5303 0.5303 (  3022 PWs)   bands (ev):

   -16.7246 -16.7096 -16.6415 -16.5738 -16.5543 -16.5356 -16.4874 -16.4560
   -16.3830 -16.3686  -2.1303   0.7528   4.4377   5.7863

          k = 0.0000-0.3536 0.3536 (  3042 PWs)   bands (ev):

   -16.7198 -16.7124 -16.6351 -16.5985 -16.5710 -16.4990 -16.4796 -16.4665
   -16.3794 -16.3761  -2.7443   1.6071   4.2979   6.6867

          k =-0.7071 0.0000 0.0000 (  3026 PWs)   bands (ev):

   -16.7130 -16.7130 -16.6273 -16.6273 -16.5280 -16.5280 -16.4704 -16.4704
   -16.3771 -16.3771  -0.7472  -0.7472   5.1124   5.1124

          k =-0.7071 0.3536 0.0000 (  3028 PWs)   bands (ev):

   -16.7268 -16.7268 -16.5848 -16.5848 -16.5358 -16.5358 -16.5036 -16.5036
   -16.3648 -16.3648  -0.6493  -0.6493   4.2629   4.2629

     highest occupied level (ev):     8.1965

!    total energy              =    -426.15182155 Ry
     estimated scf accuracy    <       0.00000005 Ry

     The total energy is the sum of the following terms:
     one-electron contribution =    -279.23881632 Ry
     hartree contribution      =     165.13295834 Ry
     xc contribution           =    -114.55148853 Ry
     ewald contribution        =    -197.49447504 Ry

     convergence has been achieved in   6 iterations

     Forces acting on atoms (cartesian axes, Ry/au):

     atom    1 type  1   force =     0.00000000    0.00000000    0.00000000
     atom    2 type  1   force =     0.00000000    0.00000000    0.00000000

     Total force =     0.000000     Total SCF correction =     0.000000


     Computing stress (Cartesian axis) and pressure

          total   stress  (Ry/bohr**3)                   (kbar)     P=       -2.69
  -0.00001828  -0.00000000  -0.00000000           -2.69       -0.00       -0.00
  -0.00000000  -0.00001828  -0.00000000           -0.00       -2.69       -0.00
  -0.00000000  -0.00000000  -0.00001828           -0.00       -0.00       -2.69

     Message from routine punch:
     Nothing written, as per user request (disk_io='none')

     init_run     :      1.42s CPU      1.50s WALL (       1 calls)
     electrons    :      7.73s CPU      8.39s WALL (       1 calls)
     forces       :      0.16s CPU      0.21s WALL (       1 calls)
     stress       :      1.20s CPU      1.33s WALL (       1 calls)

     Called by init_run:
     wfcinit      :      0.65s CPU      0.67s WALL (       1 calls)
     potinit      :      0.04s CPU      0.04s WALL (       1 calls)
     hinit0       :      0.62s CPU      0.63s WALL (       1 calls)

     Called by electrons:
     c_bands      :      5.27s CPU      5.33s WALL (       7 calls)
     sum_band     :      1.81s CPU      2.12s WALL (       7 calls)
     v_of_rho     :      0.07s CPU      0.07s WALL (       7 calls)
     newd         :      0.66s CPU      0.98s WALL (       7 calls)
     mix_rho      :      0.02s CPU      0.02s WALL (       7 calls)

     Called by c_bands:
     init_us_2    :      0.18s CPU      0.18s WALL (     136 calls)
     cegterg      :      4.90s CPU      4.96s WALL (      56 calls)

     Called by *egterg:
     cdiaghg      :      0.05s CPU      0.05s WALL (     183 calls)
     h_psi        :      4.99s CPU      5.04s WALL (     199 calls)
     s_psi        :      0.09s CPU      0.09s WALL (     199 calls)
     g_psi        :      0.02s CPU      0.02s WALL (     135 calls)

     Called by h_psi:
     h_psi:calbec :      0.12s CPU      0.12s WALL (     199 calls)
     vloc_psi     :      4.75s CPU      4.80s WALL (     199 calls)
     add_vuspsi   :      0.10s CPU      0.10s WALL (     199 calls)

     General routines
     calbec       :      0.23s CPU      0.23s WALL (     391 calls)
     fft          :      0.36s CPU      0.37s WALL (      37 calls)
     ffts         :      0.01s CPU      0.01s WALL (       7 calls)
     fftw         :      4.69s CPU      4.75s WALL (    4968 calls)

     Parallel routines

     PWSCF        :     10.66s CPU     11.58s WALL


   This run was terminated on:  23:58:20   7Oct2025            

=------------------------------------------------------------------------------=
   JOB DONE.
=------------------------------------------------------------------------------=
