
     Program PWSCF v.7.4.1 starts on  9Oct2025 at 13: 1:50 

     This program is part of the open-source Quantum ESPRESSO suite
     for quantum simulation of materials; please cite
         "P. Giannozzi et al., J. Phys.:Condens. Matter 21 395502 (2009);
         "P. Giannozzi et al., J. Phys.:Condens. Matter 29 465901 (2017);
         "P. Giannozzi et al., J. Chem. Phys. 152 154105 (2020);
          URL http://www.quantum-espresso.org", 
     in publications or presentations arising from this work. More details at
     http://www.quantum-espresso.org/quote

     Parallel version (MPI), running on     1 processors

     MPI processes distributed on     1 nodes
     212 MiB available memory on the printing compute node when the environment starts

     Waiting for input...
     Reading input from standard input
Warning: card &CELL ignored
Warning: card / ignored

     Current dimensions of program PWSCF are:
     Max number of different atomic species (ntypx) = 10
     Max number of k-points (npk) =  40000
     Max angular momentum in pseudopotentials (lmaxx) =  4
     Message from routine setup:
     using ibrav=0 with symmetry is DISCOURAGED, use correct ibrav instead

     Subspace diagonalization in iterative solution of the eigenvalue problem:
     a serial algorithm will be used


     G-vector sticks info
     --------------------
     sticks:   dense  smooth     PW     G-vecs:    dense   smooth      PW
     Sum         163     163     55                 1363     1363     283

     Using Slab Decomposition



     bravais-lattice index     =            0
     lattice parameter (alat)  =       7.5872  a.u.
     unit-cell volume          =     308.8323 (a.u.)^3
     number of atoms/cell      =            2
     number of atomic types    =            1
     number of electrons       =        28.00
     number of Kohn-Sham states=           14
     kinetic-energy cutoff     =      10.0000  Ry
     charge density cutoff     =      40.0000  Ry
     scf convergence threshold =      1.0E-07
     mixing beta               =       0.5000
     number of iterations used =            8  plain     mixing
     Exchange-correlation=  SLA  PZ   NOGX NOGC
                           (   1   1   0   0   0   0   0)

     celldm(1)=   7.587160  celldm(2)=   0.000000  celldm(3)=   0.000000
     celldm(4)=   0.000000  celldm(5)=   0.000000  celldm(6)=   0.000000

     crystal axes: (cart. coord. in units of alat)
               a(1) = (   0.000000   0.707107   0.707107 )  
               a(2) = (   0.707107   0.000000   0.707107 )  
               a(3) = (   0.707107   0.707107   0.000000 )  

     reciprocal axes: (cart. coord. in units 2 pi/alat)
               b(1) = ( -0.707107  0.707107  0.707107 )  
               b(2) = (  0.707107 -0.707107  0.707107 )  
               b(3) = (  0.707107  0.707107 -0.707107 )  


     PseudoPot. # 1 for Ge read from file:
     /home/bond/Software/QE/qe-7.4.1/pseudo/ge_lda_v1.4.uspp.F.UPF
     MD5 check sum: bf9d52b59cc8a669818bb2b52e0c2ba0
     Pseudo is Ultrasoft + core correction, Zval = 14.0
     Generated by new atomic code, or converted to UPF format
     Using radial grid of  873 points,  6 beta functions with: 
                l(1) =   0
                l(2) =   0
                l(3) =   1
                l(4) =   1
                l(5) =   2
                l(6) =   2
     Q(r) pseudized with  8 coefficients,  rinner =    1.400   1.400   1.400
                                                       1.400   1.400

     atomic species   valence    mass     pseudopotential
     Ge               14.00    72.63000     Ge( 1.00)

     48 Sym. Ops., with inversion, found (24 have fractional translation)



   Cartesian axes

     site n.     atom                  positions (alat units)
         1        Ge     tau(   1) = (   0.0000000   0.0000000   0.0000000  )
         2        Ge     tau(   2) = (   0.3535534   0.3535534   0.3535534  )

     number of k points=     8
                       cart. coord. in units 2pi/alat
        k(    1) = (   0.0000000   0.0000000   0.0000000), wk =   0.0312500
        k(    2) = (   0.1767767   0.1767767  -0.1767767), wk =   0.2500000
        k(    3) = (  -0.3535534  -0.3535534   0.3535534), wk =   0.1250000
        k(    4) = (   0.3535534   0.0000000   0.0000000), wk =   0.1875000
        k(    5) = (  -0.1767767  -0.5303301   0.5303301), wk =   0.7500000
        k(    6) = (   0.0000000  -0.3535534   0.3535534), wk =   0.3750000
        k(    7) = (  -0.7071068   0.0000000   0.0000000), wk =   0.0937500
        k(    8) = (  -0.7071068   0.3535534   0.0000000), wk =   0.1875000

     Dense  grid:     1363 G-vectors     FFT dimensions: (  16,  16,  16)

     Estimated max dynamical RAM per process >       5.95 MB

     Check: negative core charge=   -0.017291

     Initial potential from superposition of free atoms

     starting charge      27.9986, renormalised to      28.0000

     negative rho (up, down):  3.828E-01 0.000E+00
     Starting wfcs are   18 randomized atomic wfcs

     total cpu time spent up to now is        0.2 secs

     Self-consistent Calculation

     iteration #  1     ecut=    10.00 Ry     beta= 0.50
     Davidson diagonalization with overlap
     ethr =  1.00E-02,  avg # of iterations =  2.4

     negative rho (up, down):  5.744E-02 0.000E+00

     total cpu time spent up to now is        0.2 secs

     total energy              =    -350.57151782 Ry
     estimated scf accuracy    <      58.73130597 Ry

     iteration #  2     ecut=    10.00 Ry     beta= 0.50
     Davidson diagonalization with overlap
     ethr =  1.00E-02,  avg # of iterations =  5.6

     negative rho (up, down):  9.983E-02 0.000E+00

     total cpu time spent up to now is        0.3 secs

     total energy              =    -365.46497372 Ry
     estimated scf accuracy    <       1.96678101 Ry

     iteration #  3     ecut=    10.00 Ry     beta= 0.50
     Davidson diagonalization with overlap
     ethr =  7.02E-03,  avg # of iterations =  1.2

     negative rho (up, down):  1.306E-01 0.000E+00

     total cpu time spent up to now is        0.3 secs

     total energy              =    -365.31217937 Ry
     estimated scf accuracy    <       0.31286899 Ry

     iteration #  4     ecut=    10.00 Ry     beta= 0.50
     Davidson diagonalization with overlap
     ethr =  1.12E-03,  avg # of iterations =  2.9

     negative rho (up, down):  1.188E-01 0.000E+00

     total cpu time spent up to now is        0.3 secs

     total energy              =    -365.74295980 Ry
     estimated scf accuracy    <       0.00747704 Ry

     iteration #  5     ecut=    10.00 Ry     beta= 0.50
     Davidson diagonalization with overlap
     ethr =  2.67E-05,  avg # of iterations =  2.8

     negative rho (up, down):  1.178E-01 0.000E+00

     total cpu time spent up to now is        0.4 secs

     total energy              =    -365.74423246 Ry
     estimated scf accuracy    <       0.00026343 Ry

     iteration #  6     ecut=    10.00 Ry     beta= 0.50
     Davidson diagonalization with overlap
     ethr =  9.41E-07,  avg # of iterations =  4.0

     negative rho (up, down):  1.169E-01 0.000E+00

     total cpu time spent up to now is        0.4 secs

     total energy              =    -365.74430077 Ry
     estimated scf accuracy    <       0.00003404 Ry

     iteration #  7     ecut=    10.00 Ry     beta= 0.50
     Davidson diagonalization with overlap
     ethr =  1.22E-07,  avg # of iterations =  2.0

     negative rho (up, down):  1.165E-01 0.000E+00

     total cpu time spent up to now is        0.4 secs

     total energy              =    -365.74429929 Ry
     estimated scf accuracy    <       0.00000502 Ry

     iteration #  8     ecut=    10.00 Ry     beta= 0.50
     Davidson diagonalization with overlap
     ethr =  1.79E-08,  avg # of iterations =  3.2

     negative rho (up, down):  1.165E-01 0.000E+00

     total cpu time spent up to now is        0.5 secs

     total energy              =    -365.74430091 Ry
     estimated scf accuracy    <       0.00000017 Ry

     iteration #  9     ecut=    10.00 Ry     beta= 0.50
     Davidson diagonalization with overlap
     ethr =  6.22E-10,  avg # of iterations =  3.9

     negative rho (up, down):  1.165E-01 0.000E+00

     total cpu time spent up to now is        0.5 secs

     End of self-consistent calculation

          k = 0.0000 0.0000 0.0000 (   169 PWs)   bands (ev):

   -31.3423 -31.3423 -30.6725 -30.6725 -30.6725 -30.3983 -30.3983 -16.6243
   -16.6243 -16.6243 -11.4913  -4.6476   1.8503   1.8503

          k = 0.1768 0.1768-0.1768 (   162 PWs)   bands (ev):

   -33.5556 -33.5556 -29.7822 -25.4474 -25.4474 -16.2639 -16.2639 -13.6173
   -13.6173 -12.0645 -10.9777  -5.8775   1.3704   1.3704

          k =-0.3536-0.3536 0.3536 (   168 PWs)   bands (ev):

   -40.4320 -40.4320 -38.1579 -27.3071 -27.3071 -19.9056 -19.9056 -15.8067
   -13.5772 -13.5772 -10.2059  -7.3101   1.0172   1.0172

          k = 0.3536 0.0000 0.0000 (   165 PWs)   bands (ev):

   -35.0916 -35.0916 -35.0117 -30.9038 -26.8214 -21.4593 -21.4096 -12.2704
   -10.9843 -10.9843 -10.7928  -6.2463   0.7407   0.7407

          k =-0.1768-0.5303 0.5303 (   164 PWs)   bands (ev):

   -38.3325 -33.5630 -32.1740 -31.8687 -24.2040 -18.6054 -17.1546 -16.3759
   -14.8907  -9.8397  -8.0764  -7.7190  -0.1909   0.4687

          k = 0.0000-0.3536 0.3536 (   164 PWs)   bands (ev):

   -38.1621 -36.6606 -32.5471 -23.6073 -20.6081 -18.7513 -18.2884 -17.4493
   -14.3407 -13.6914 -10.2280  -7.1753  -0.2197   0.9842

          k =-0.7071 0.0000 0.0000 (   174 PWs)   bands (ev):

   -42.8998 -42.8998 -34.9069 -34.9069 -27.6477 -27.6477 -24.4386 -24.4386
   -19.3763 -19.3763  -8.8542  -8.8542   0.0230   0.0230

          k =-0.7071 0.3536 0.0000 (   156 PWs)   bands (ev):

   -32.1915 -32.1915 -19.8413 -19.8413 -18.7391 -18.7391 -15.8128 -15.8128
    -8.8370  -8.8370  -3.9601  -3.9601  -0.1928  -0.1928

     highest occupied level (ev):     1.8503

!    total energy              =    -365.74430098 Ry
     estimated scf accuracy    <          3.4E-09 Ry

     The total energy is the sum of the following terms:
     one-electron contribution =    -158.54089383 Ry
     hartree contribution      =      89.22445376 Ry
     xc contribution           =     -99.62903389 Ry
     ewald contribution        =    -196.79882702 Ry

     convergence has been achieved in   9 iterations

     negative rho (up, down):  1.165E-01 0.000E+00

     Forces acting on atoms (cartesian axes, Ry/au):

     atom    1 type  1   force =     0.00000000   -0.00000000    0.00000000
     atom    2 type  1   force =     0.00000000   -0.00000000   -0.00000000

     Total force =     0.000000     Total SCF correction =     0.000000


     Computing stress (Cartesian axis) and pressure


     negative rho (up, down):  1.165E-01 0.000E+00
          total   stress  (Ry/bohr**3)                   (kbar)     P=   -74469.12
  -0.50623076  -0.00000000  -0.00000000       -74469.12       -0.00       -0.00
  -0.00000000  -0.50623076  -0.00000000           -0.00   -74469.12       -0.00
  -0.00000000  -0.00000000  -0.50623076           -0.00       -0.00   -74469.12

     Message from routine punch:
     Nothing written, as per user request (disk_io='none')

     init_run     :      0.13s CPU      0.13s WALL (       1 calls)
     electrons    :      0.25s CPU      0.28s WALL (       1 calls)
     forces       :      0.01s CPU      0.01s WALL (       1 calls)
     stress       :      0.05s CPU      0.05s WALL (       1 calls)

     Called by init_run:
     wfcinit      :      0.02s CPU      0.02s WALL (       1 calls)
     potinit      :      0.01s CPU      0.01s WALL (       1 calls)
     hinit0       :      0.10s CPU      0.10s WALL (       1 calls)

     Called by electrons:
     c_bands      :      0.18s CPU      0.19s WALL (       9 calls)
     sum_band     :      0.05s CPU      0.06s WALL (       9 calls)
     v_of_rho     :      0.00s CPU      0.00s WALL (      10 calls)
     newd         :      0.03s CPU      0.04s WALL (      10 calls)
     mix_rho      :      0.00s CPU      0.00s WALL (       9 calls)

     Called by c_bands:
     init_us_2    :      0.01s CPU      0.01s WALL (     168 calls)
     cegterg      :      0.16s CPU      0.17s WALL (      72 calls)

     Called by *egterg:
     cdiaghg      :      0.04s CPU      0.05s WALL (     296 calls)
     h_psi        :      0.11s CPU      0.11s WALL (     304 calls)
     s_psi        :      0.00s CPU      0.01s WALL (     304 calls)
     g_psi        :      0.00s CPU      0.00s WALL (     224 calls)

     Called by h_psi:
     h_psi:calbec :      0.01s CPU      0.01s WALL (     304 calls)
     vloc_psi     :      0.09s CPU      0.10s WALL (     304 calls)
     add_vuspsi   :      0.00s CPU      0.01s WALL (     304 calls)

     General routines
     calbec       :      0.01s CPU      0.01s WALL (     512 calls)
     fft          :      0.03s CPU      0.03s WALL (      48 calls)
     ffts         :      0.00s CPU      0.00s WALL (       9 calls)
     fftw         :      0.08s CPU      0.09s WALL (    6802 calls)

     Parallel routines

     PWSCF        :      0.52s CPU      0.55s WALL


   This run was terminated on:  13: 1:51   9Oct2025            

=------------------------------------------------------------------------------=
   JOB DONE.
=------------------------------------------------------------------------------=
