LAMMPS (22 Jul 2025 - Update 1)
# ---------- 1. Initialize simulation ---------------------
units metal
atom_style atomic
dimension  3
boundary   p p f
read_data /home/bond/Work/Lab1/Surface/LJ/relax/4_3_110/lammps.data
Reading data file ...
  orthogonal box = (0 0 0) to (12.367569 8.7451919 10.372596)
  1 by 1 by 1 MPI processor grid
  reading atoms ...
  36 atoms
  read_data CPU = 0.001 seconds

# ---------- 2. Specify interatomic potential ---------------------
pair_style lj/cut 4.5
pair_coeff 1 1 0.392 2.620 4.5

# ---------- 3. Run single point calculation  ---------------------
thermo_style custom step pe lx ly lz press pxx pyy pzz
run 0
WARNING: No fixes with time integration, atoms won't move
For more information see https://docs.lammps.org/err0028 (../verlet.cpp:60)
Generated 0 of 0 mixed pair_coeff terms from geometric mixing rule
Neighbor list info ...
  update: every = 1 steps, delay = 0 steps, check = yes
  max neighbors/atom: 2000, page size: 100000
  master list distance cutoff = 6.5
  ghost atom cutoff = 6.5
  binsize = 3.25, bins = 4 3 4
  1 neighbor lists, perpetual/occasional/extra = 1 0 0
  (1) pair lj/cut, perpetual
      attributes: half, newton on
      pair build: half/bin/atomonly/newton
      stencil: half/bin/3d
      bin: standard
Per MPI rank memory allocation (min/avg/max) = 3.052 | 3.052 | 3.052 Mbytes
   Step         PotEng           Lx             Ly             Lz           Press           Pxx            Pyy            Pzz      
         0  -70.26574       12.367569      8.7451919      10.372596      2305.4439     -6918.3729      10376.385      3458.32      
Loop time of 1.771e-06 on 1 procs for 0 steps with 36 atoms

169.4% CPU use with 1 MPI tasks x no OpenMP threads

MPI task timing breakdown:
Section |  min time  |  avg time  |  max time  |%varavg| %total
---------------------------------------------------------------
Pair    | 0          | 0          | 0          |   0.0 |  0.00
Neigh   | 0          | 0          | 0          |   0.0 |  0.00
Comm    | 0          | 0          | 0          |   0.0 |  0.00
Output  | 0          | 0          | 0          |   0.0 |  0.00
Modify  | 0          | 0          | 0          |   0.0 |  0.00
Other   |            | 1.771e-06  |            |       |100.00

Nlocal:             36 ave          36 max          36 min
Histogram: 1 0 0 0 0 0 0 0 0 0
Nghost:            158 ave         158 max         158 min
Histogram: 1 0 0 0 0 0 0 0 0 0
Neighs:            594 ave         594 max         594 min
Histogram: 1 0 0 0 0 0 0 0 0 0

Total # of neighbors = 594
Ave neighs/atom = 16.5
Neighbor list builds = 0
Dangerous builds = 0
# -- include optimization of the unit cell parameter
fix 1 all box/relax x 0.0 y 0.0 couple xy vmax 0.001

# -- enable optimization of atomic positions (and the cell)
min_style cg
minimize 1e-10 1e-10 1000 10000
Generated 0 of 0 mixed pair_coeff terms from geometric mixing rule
WARNING: Energy due to 3 extra global DOFs will be included in minimizer energies
 (../min.cpp:222)
Per MPI rank memory allocation (min/avg/max) = 4.177 | 4.177 | 4.177 Mbytes
   Step         PotEng           Lx             Ly             Lz           Press           Pxx            Pyy            Pzz      
         0  -70.26574       12.367569      8.7451919      10.372596      2305.4439     -6918.3729      10376.385      3458.32      
        11  -70.28123       12.361725      8.7410596      10.372596      0.2860066     -9867.4404      9868.1924      0.10594932   
Loop time of 0.000341115 on 1 procs for 11 steps with 36 atoms

100.0% CPU use with 1 MPI tasks x no OpenMP threads

Minimization stats:
  Stopping criterion = energy tolerance
  Energy initial, next-to-last, final = 
     -70.2657399891571  -70.2812299557095   -70.281229955879
  Force two-norm initial, final = 1.7994896 0.00051193258
  Force max component initial, final = 1.2106741 0.00026318072
  Final line search alpha, max atom move = 1 0.00026318072
  Iterations, force evaluations = 11 22

MPI task timing breakdown:
Section |  min time  |  avg time  |  max time  |%varavg| %total
---------------------------------------------------------------
Pair    | 0.00019014 | 0.00019014 | 0.00019014 |   0.0 | 55.74
Neigh   | 0          | 0          | 0          |   0.0 |  0.00
Comm    | 1.9429e-05 | 1.9429e-05 | 1.9429e-05 |   0.0 |  5.70
Output  | 0          | 0          | 0          |   0.0 |  0.00
Modify  | 0          | 0          | 0          |   0.0 |  0.00
Other   |            | 0.0001315  |            |       | 38.56

Nlocal:             36 ave          36 max          36 min
Histogram: 1 0 0 0 0 0 0 0 0 0
Nghost:            158 ave         158 max         158 min
Histogram: 1 0 0 0 0 0 0 0 0 0
Neighs:            594 ave         594 max         594 min
Histogram: 1 0 0 0 0 0 0 0 0 0

Total # of neighbors = 594
Ave neighs/atom = 16.5
Neighbor list builds = 0
Dangerous builds = 0

# ---- 4. Define and print useful variables -------------
variable natoms equal "count(all)"
variable totenergy equal "pe"
variable length equal "lx"

print "Total energy (eV) = ${totenergy}"
Total energy (eV) = -70.281229955879
print "Number of atoms = ${natoms}"
Number of atoms = 36
print "Lattice constant (Angstoms) = ${length}"
Lattice constant (Angstoms) = 12.3617250368786
Total wall time: 0:00:00
