LAMMPS (22 Jul 2025 - Update 1)
# ---------- 1. Initialize simulation ---------------------
units metal
atom_style atomic
dimension  3
boundary   p p f
read_data /home/bond/Work/Lab1/Surface/LJ/relax/5_3_100/lammps.data
Reading data file ...
  orthogonal box = (0 0 0) to (8.7451919 8.7451919 14.245046)
  1 by 1 by 1 MPI processor grid
  reading atoms ...
  45 atoms
  read_data CPU = 0.001 seconds

# ---------- 2. Specify interatomic potential ---------------------
pair_style lj/cut 4.5
pair_coeff 1 1 0.392 2.620 4.5

# ---------- 3. Run single point calculation  ---------------------
thermo_style custom step pe lx ly lz press pxx pyy pzz
run 0
WARNING: No fixes with time integration, atoms won't move
For more information see https://docs.lammps.org/err0028 (../verlet.cpp:60)
Generated 0 of 0 mixed pair_coeff terms from geometric mixing rule
Neighbor list info ...
  update: every = 1 steps, delay = 0 steps, check = yes
  max neighbors/atom: 2000, page size: 100000
  master list distance cutoff = 6.5
  ghost atom cutoff = 6.5
  binsize = 3.25, bins = 3 3 5
  1 neighbor lists, perpetual/occasional/extra = 1 0 0
  (1) pair lj/cut, perpetual
      attributes: half, newton on
      pair build: half/bin/atomonly/newton
      stencil: half/bin/3d
      bin: standard
Per MPI rank memory allocation (min/avg/max) = 3.053 | 3.053 | 3.053 Mbytes
   Step         PotEng           Lx             Ly             Lz           Press           Pxx            Pyy            Pzz      
         0  -102.74959      8.7451919      8.7451919      14.245046     -0.55803933    -3562.2737     -3562.2737      7122.8732    
Loop time of 2.199e-06 on 1 procs for 0 steps with 45 atoms

181.9% CPU use with 1 MPI tasks x no OpenMP threads

MPI task timing breakdown:
Section |  min time  |  avg time  |  max time  |%varavg| %total
---------------------------------------------------------------
Pair    | 0          | 0          | 0          |   0.0 |  0.00
Neigh   | 0          | 0          | 0          |   0.0 |  0.00
Comm    | 0          | 0          | 0          |   0.0 |  0.00
Output  | 0          | 0          | 0          |   0.0 |  0.00
Modify  | 0          | 0          | 0          |   0.0 |  0.00
Other   |            | 2.199e-06  |            |       |100.00

Nlocal:             45 ave          45 max          45 min
Histogram: 1 0 0 0 0 0 0 0 0 0
Nghost:            245 ave         245 max         245 min
Histogram: 1 0 0 0 0 0 0 0 0 0
Neighs:            945 ave         945 max         945 min
Histogram: 1 0 0 0 0 0 0 0 0 0

Total # of neighbors = 945
Ave neighs/atom = 21
Neighbor list builds = 0
Dangerous builds = 0
# -- include optimization of the unit cell parameter
fix 1 all box/relax x 0.0 y 0.0 couple xy vmax 0.001

# -- enable optimization of atomic positions (and the cell)
min_style cg
minimize 1e-10 1e-10 1000 10000
Generated 0 of 0 mixed pair_coeff terms from geometric mixing rule
WARNING: Energy due to 3 extra global DOFs will be included in minimizer energies
 (../min.cpp:222)
Per MPI rank memory allocation (min/avg/max) = 4.178 | 4.178 | 4.178 Mbytes
   Step         PotEng           Lx             Ly             Lz           Press           Pxx            Pyy            Pzz      
         0  -102.74959      8.7451919      8.7451919      14.245046     -0.55803933    -3562.2737     -3562.2737      7122.8732    
        22  -102.78924      8.7127463      8.7127463      14.245046      14.298708      0.78087275     0.78087275     41.334378    
Loop time of 0.00110084 on 1 procs for 22 steps with 45 atoms

100.0% CPU use with 1 MPI tasks x no OpenMP threads

Minimization stats:
  Stopping criterion = energy tolerance
  Energy initial, next-to-last, final = 
      -102.74958959639  -102.789244079866  -102.789244082542
  Force two-norm initial, final = 3.5139598 0.0016126625
  Force max component initial, final = 2.4222528 0.00052900306
  Final line search alpha, max atom move = 0.57563727 0.00030451388
  Iterations, force evaluations = 22 42

MPI task timing breakdown:
Section |  min time  |  avg time  |  max time  |%varavg| %total
---------------------------------------------------------------
Pair    | 0.00070039 | 0.00070039 | 0.00070039 |   0.0 | 63.62
Neigh   | 0          | 0          | 0          |   0.0 |  0.00
Comm    | 5.7249e-05 | 5.7249e-05 | 5.7249e-05 |   0.0 |  5.20
Output  | 0          | 0          | 0          |   0.0 |  0.00
Modify  | 0          | 0          | 0          |   0.0 |  0.00
Other   |            | 0.0003432  |            |       | 31.18

Nlocal:             45 ave          45 max          45 min
Histogram: 1 0 0 0 0 0 0 0 0 0
Nghost:            245 ave         245 max         245 min
Histogram: 1 0 0 0 0 0 0 0 0 0
Neighs:            945 ave         945 max         945 min
Histogram: 1 0 0 0 0 0 0 0 0 0

Total # of neighbors = 945
Ave neighs/atom = 21
Neighbor list builds = 0
Dangerous builds = 0

# ---- 4. Define and print useful variables -------------
variable natoms equal "count(all)"
variable totenergy equal "pe"
variable length equal "lx"

print "Total energy (eV) = ${totenergy}"
Total energy (eV) = -102.789244082542
print "Number of atoms = ${natoms}"
Number of atoms = 45
print "Lattice constant (Angstoms) = ${length}"
Lattice constant (Angstoms) = 8.71274634215933
Total wall time: 0:00:00
