LAMMPS (22 Jul 2025 - Update 1)
Reading data file ...
  orthogonal box = (0 0 0) to (8.6584976 7.4984789 13.782723)
  1 by 1 by 1 MPI processor grid
  reading atoms ...
  54 atoms
  read_data CPU = 0.001 seconds
Reading eam/alloy potential file /home/bond/Software/LAMMPS/lammps-22Jul2025/potentials/Al_zhou.eam.alloy with DATE: 2007-10-12
WARNING: No fixes with time integration, atoms won't move
For more information see https://docs.lammps.org/err0028 (../verlet.cpp:60)
Neighbor list info ...
  update: every = 1 steps, delay = 0 steps, check = yes
  max neighbors/atom: 2000, page size: 100000
  master list distance cutoff = 12.1025
  ghost atom cutoff = 12.1025
  binsize = 6.05125, bins = 2 2 3
  1 neighbor lists, perpetual/occasional/extra = 1 0 0
  (1) pair eam/alloy, perpetual
      attributes: half, newton on
      pair build: half/bin/atomonly/newton
      stencil: half/bin/3d
      bin: standard
Setting up Verlet run ...
  Unit style    : metal
  Current step  : 0
  Time step     : 0.001
Per MPI rank memory allocation (min/avg/max) = 3.335 | 3.335 | 3.335 Mbytes
   Step         PotEng           Lx             Ly             Lz           Press           Pxx            Pyy            Pzz      
         0  -183.35756      8.6584976      7.4984789      13.782723     -1005.0902     -23180.52       19504.751      660.49823    
Loop time of 1.961e-06 on 1 procs for 0 steps with 54 atoms

102.0% CPU use with 1 MPI tasks x no OpenMP threads

MPI task timing breakdown:
Section |  min time  |  avg time  |  max time  |%varavg| %total
---------------------------------------------------------------
Pair    | 0          | 0          | 0          |   0.0 |  0.00
Neigh   | 0          | 0          | 0          |   0.0 |  0.00
Comm    | 0          | 0          | 0          |   0.0 |  0.00
Output  | 0          | 0          | 0          |   0.0 |  0.00
Modify  | 0          | 0          | 0          |   0.0 |  0.00
Other   |            | 1.961e-06  |            |       |100.00

Nlocal:             54 ave          54 max          54 min
Histogram: 1 0 0 0 0 0 0 0 0 0
Nghost:            824 ave         824 max         824 min
Histogram: 1 0 0 0 0 0 0 0 0 0
Neighs:           8016 ave        8016 max        8016 min
Histogram: 1 0 0 0 0 0 0 0 0 0

Total # of neighbors = 8016
Ave neighs/atom = 148.44444
Neighbor list builds = 0
Dangerous builds = 0
Setting up cg style minimization ...
  Unit style    : metal
  Current step  : 0
Per MPI rank memory allocation (min/avg/max) = 4.46 | 4.46 | 4.46 Mbytes
   Step         PotEng           Lx             Ly             Lz           Press           Pxx            Pyy            Pzz      
         0  -183.35756      8.6584976      7.4984789      13.782723     -1005.0902     -23180.52       19504.751      660.49823    
        24  -184.82943      8.6584976      7.4984789      13.782723      1823.3303     -12588.048      18058.077     -0.037784498  
Loop time of 0.0283034 on 1 procs for 24 steps with 54 atoms

99.8% CPU use with 1 MPI tasks x no OpenMP threads

Minimization stats:
  Stopping criterion = energy tolerance
  Energy initial, next-to-last, final = 
     -183.357557329858   -184.82942604848  -184.829426054679
  Force two-norm initial, final = 3.8625141 0.00011767616
  Force max component initial, final = 0.66710948 2.7144402e-05
  Final line search alpha, max atom move = 1 2.7144402e-05
  Iterations, force evaluations = 24 48

MPI task timing breakdown:
Section |  min time  |  avg time  |  max time  |%varavg| %total
---------------------------------------------------------------
Pair    | 0.027682   | 0.027682   | 0.027682   |   0.0 | 97.80
Neigh   | 0          | 0          | 0          |   0.0 |  0.00
Comm    | 0.00029781 | 0.00029781 | 0.00029781 |   0.0 |  1.05
Output  | 0          | 0          | 0          |   0.0 |  0.00
Modify  | 0          | 0          | 0          |   0.0 |  0.00
Other   |            | 0.0003239  |            |       |  1.14

Nlocal:             54 ave          54 max          54 min
Histogram: 1 0 0 0 0 0 0 0 0 0
Nghost:            824 ave         824 max         824 min
Histogram: 1 0 0 0 0 0 0 0 0 0
Neighs:           8016 ave        8016 max        8016 min
Histogram: 1 0 0 0 0 0 0 0 0 0

Total # of neighbors = 8016
Ave neighs/atom = 148.44444
Neighbor list builds = 0
Dangerous builds = 0
Total energy (eV) = -184.829426054679
Number of atoms = 54
Lattice constant (Angstoms) = 8.65849758507688
Total wall time: 0:00:00
