LAMMPS (22 Jul 2025 - Update 1)
Reading data file ...
  orthogonal box = (0 0 0) to (73.469788 73.469788 73.469788)
  1 by 1 by 1 MPI processor grid
  reading atoms ...
  23327 atoms
  read_data CPU = 0.070 seconds
Reading eam/alloy potential file /home/bond/Software/LAMMPS/lammps-22Jul2025/potentials/Al_zhou.eam.alloy with DATE: 2007-10-12
WARNING: No fixes with time integration, atoms won't move
For more information see https://docs.lammps.org/err0028 (../verlet.cpp:60)
Neighbor list info ...
  update: every = 1 steps, delay = 0 steps, check = yes
  max neighbors/atom: 2000, page size: 100000
  master list distance cutoff = 12.1025
  ghost atom cutoff = 12.1025
  binsize = 6.05125, bins = 13 13 13
  1 neighbor lists, perpetual/occasional/extra = 1 0 0
  (1) pair eam/alloy, perpetual
      attributes: half, newton on
      pair build: half/bin/atomonly/newton
      stencil: half/bin/3d
      bin: standard
Setting up Verlet run ...
  Unit style    : metal
  Current step  : 0
  Time step     : 0.001
Per MPI rank memory allocation (min/avg/max) = 31.68 | 31.68 | 31.68 Mbytes
   Step         PotEng           Lx             Ly             Lz           Press           Pxx            Pyy            Pzz      
         0  -83509.822      73.469788      73.469788      73.469788     -12.207923     -12.207929     -12.207913     -12.207929    
Loop time of 2.529e-06 on 1 procs for 0 steps with 23327 atoms

158.2% CPU use with 1 MPI tasks x no OpenMP threads

MPI task timing breakdown:
Section |  min time  |  avg time  |  max time  |%varavg| %total
---------------------------------------------------------------
Pair    | 0          | 0          | 0          |   0.0 |  0.00
Neigh   | 0          | 0          | 0          |   0.0 |  0.00
Comm    | 0          | 0          | 0          |   0.0 |  0.00
Output  | 0          | 0          | 0          |   0.0 |  0.00
Modify  | 0          | 0          | 0          |   0.0 |  0.00
Other   |            | 2.529e-06  |            |       |100.00

Nlocal:          23327 ave       23327 max       23327 min
Histogram: 1 0 0 0 0 0 0 0 0 0
Nghost:          28576 ave       28576 max       28576 min
Histogram: 1 0 0 0 0 0 0 0 0 0
Neighs:    4.99176e+06 ave 4.99176e+06 max 4.99176e+06 min
Histogram: 1 0 0 0 0 0 0 0 0 0

Total # of neighbors = 4991764
Ave neighs/atom = 213.99083
Neighbor list builds = 0
Dangerous builds = 0
Setting up cg style minimization ...
  Unit style    : metal
  Current step  : 0
WARNING: Energy due to 1 extra global DOFs will be included in minimizer energies
 (../min.cpp:222)
Per MPI rank memory allocation (min/avg/max) = 36.18 | 36.18 | 36.18 Mbytes
   Step         PotEng           Lx             Ly             Lz           Press           Pxx            Pyy            Pzz      
         0  -83509.822      73.469788      73.469788      73.469788     -12.207923     -12.207929     -12.207913     -12.207929    
         5  -83509.899      73.469423      73.469423      73.469423     -0.15319859    -0.15320317    -0.15318942    -0.15320317   
Loop time of 2.72943 on 1 procs for 5 steps with 23327 atoms

100.0% CPU use with 1 MPI tasks x no OpenMP threads

Minimization stats:
  Stopping criterion = energy tolerance
  Energy initial, next-to-last, final = 
     -83509.8217052213  -83509.8988838487  -83509.8988841962
  Force two-norm initial, final = 9.0990515 0.29149673
  Force max component initial, final = 9.0652347 0.11375951
  Final line search alpha, max atom move = 0.0015203902 0.00017295884
  Iterations, force evaluations = 5 10

MPI task timing breakdown:
Section |  min time  |  avg time  |  max time  |%varavg| %total
---------------------------------------------------------------
Pair    | 2.7058     | 2.7058     | 2.7058     |   0.0 | 99.13
Neigh   | 0          | 0          | 0          |   0.0 |  0.00
Comm    | 0.0028943  | 0.0028943  | 0.0028943  |   0.0 |  0.11
Output  | 0          | 0          | 0          |   0.0 |  0.00
Modify  | 0          | 0          | 0          |   0.0 |  0.00
Other   |            | 0.02077    |            |       |  0.76

Nlocal:          23327 ave       23327 max       23327 min
Histogram: 1 0 0 0 0 0 0 0 0 0
Nghost:          28576 ave       28576 max       28576 min
Histogram: 1 0 0 0 0 0 0 0 0 0
Neighs:    4.99176e+06 ave 4.99176e+06 max 4.99176e+06 min
Histogram: 1 0 0 0 0 0 0 0 0 0

Total # of neighbors = 4991764
Ave neighs/atom = 213.99083
Neighbor list builds = 0
Dangerous builds = 0
Total energy (eV) = -83509.8988841962
Number of atoms = 23327
Lattice constant (Angstoms) = 73.4694225753646
Total wall time: 0:00:03
