LAMMPS (22 Jul 2025 - Update 1)
Reading data file ...
  orthogonal box = (0 0 0) to (8.6584976 8.6584976 100.36745)
  1 by 1 by 1 MPI processor grid
  reading atoms ...
  90 atoms
  read_data CPU = 0.001 seconds
Reading eam/alloy potential file /home/bond/Software/LAMMPS/lammps-22Jul2025/potentials/Al_zhou.eam.alloy with DATE: 2007-10-12
WARNING: No fixes with time integration, atoms won't move
For more information see https://docs.lammps.org/err0028 (../verlet.cpp:60)
Neighbor list info ...
  update: every = 1 steps, delay = 0 steps, check = yes
  max neighbors/atom: 2000, page size: 100000
  master list distance cutoff = 12.1025
  ghost atom cutoff = 12.1025
  binsize = 6.05125, bins = 2 2 17
  1 neighbor lists, perpetual/occasional/extra = 1 0 0
  (1) pair eam/alloy, perpetual
      attributes: half, newton on
      pair build: half/bin/atomonly/newton
      stencil: half/bin/3d
      bin: standard
Setting up Verlet run ...
  Unit style    : metal
  Current step  : 0
  Time step     : 0.001
Per MPI rank memory allocation (min/avg/max) = 3.36 | 3.36 | 3.36 Mbytes
   Step         PotEng           Lx             Ly             Lz           Press           Pxx            Pyy            Pzz      
         0  -314.0072       8.6584976      8.6584976      100.36745     -3173.7202     -3830.9273     -3830.9273     -1859.306     
Loop time of 1.573e-06 on 1 procs for 0 steps with 90 atoms

127.1% CPU use with 1 MPI tasks x no OpenMP threads

MPI task timing breakdown:
Section |  min time  |  avg time  |  max time  |%varavg| %total
---------------------------------------------------------------
Pair    | 0          | 0          | 0          |   0.0 |  0.00
Neigh   | 0          | 0          | 0          |   0.0 |  0.00
Comm    | 0          | 0          | 0          |   0.0 |  0.00
Output  | 0          | 0          | 0          |   0.0 |  0.00
Modify  | 0          | 0          | 0          |   0.0 |  0.00
Other   |            | 1.573e-06  |            |       |100.00

Nlocal:             90 ave          90 max          90 min
Histogram: 1 0 0 0 0 0 0 0 0 0
Nghost:           1235 ave        1235 max        1235 min
Histogram: 1 0 0 0 0 0 0 0 0 0
Neighs:          15030 ave       15030 max       15030 min
Histogram: 1 0 0 0 0 0 0 0 0 0

Total # of neighbors = 15030
Ave neighs/atom = 167
Neighbor list builds = 0
Dangerous builds = 0
Total energy (eV) = -314.007204541259
Number of atoms = 90
Lattice constant (Angstoms) = 8.65849758507688
Total wall time: 0:00:00
