LAMMPS (22 Jul 2025 - Update 1)
Reading data file ...
  orthogonal box = (0 0 0) to (8.7451919 7.5735584 15.900699)
  1 by 1 by 1 MPI processor grid
  reading atoms ...
  54 atoms
  read_data CPU = 0.001 seconds
WARNING: No fixes with time integration, atoms won't move
For more information see https://docs.lammps.org/err0028 (../verlet.cpp:60)
Generated 0 of 0 mixed pair_coeff terms from geometric mixing rule
Neighbor list info ...
  update: every = 1 steps, delay = 0 steps, check = yes
  max neighbors/atom: 2000, page size: 100000
  master list distance cutoff = 6.5
  ghost atom cutoff = 6.5
  binsize = 3.25, bins = 3 3 5
  1 neighbor lists, perpetual/occasional/extra = 1 0 0
  (1) pair lj/cut, perpetual
      attributes: half, newton on
      pair build: half/bin/atomonly/newton
      stencil: half/bin/3d
      bin: standard
Setting up Verlet run ...
  Unit style    : metal
  Current step  : 0
  Time step     : 0.001
Per MPI rank memory allocation (min/avg/max) = 3.054 | 3.054 | 3.054 Mbytes
   Step         PotEng           Lx             Ly             Lz           Press           Pxx            Pyy            Pzz      
         0  -106.47899      8.7451919      7.5735584      15.900699      183837.1      -32238.704      465580.07      118169.93    
Loop time of 1.714e-06 on 1 procs for 0 steps with 54 atoms

0.0% CPU use with 1 MPI tasks x no OpenMP threads

MPI task timing breakdown:
Section |  min time  |  avg time  |  max time  |%varavg| %total
---------------------------------------------------------------
Pair    | 0          | 0          | 0          |   0.0 |  0.00
Neigh   | 0          | 0          | 0          |   0.0 |  0.00
Comm    | 0          | 0          | 0          |   0.0 |  0.00
Output  | 0          | 0          | 0          |   0.0 |  0.00
Modify  | 0          | 0          | 0          |   0.0 |  0.00
Other   |            | 1.714e-06  |            |       |100.00

Nlocal:             54 ave          54 max          54 min
Histogram: 1 0 0 0 0 0 0 0 0 0
Nghost:            308 ave         308 max         308 min
Histogram: 1 0 0 0 0 0 0 0 0 0
Neighs:           1350 ave        1350 max        1350 min
Histogram: 1 0 0 0 0 0 0 0 0 0

Total # of neighbors = 1350
Ave neighs/atom = 25
Neighbor list builds = 0
Dangerous builds = 0
Generated 0 of 0 mixed pair_coeff terms from geometric mixing rule
Setting up cg style minimization ...
  Unit style    : metal
  Current step  : 0
WARNING: Energy due to 3 extra global DOFs will be included in minimizer energies
 (../min.cpp:222)
Per MPI rank memory allocation (min/avg/max) = 4.179 | 4.179 | 4.179 Mbytes
   Step         PotEng           Lx             Ly             Lz           Press           Pxx            Pyy            Pzz      
         0  -106.47899      8.7451919      7.5735584      15.900699      183837.1      -32238.704      465580.07      118169.93    
        53  -112.92686      9.0809194      7.8643069      15.900699      21096.853     -123432.61      132479.17      54243.998    
Loop time of 0.00684081 on 1 procs for 53 steps with 54 atoms

99.5% CPU use with 1 MPI tasks x no OpenMP threads

Minimization stats:
  Stopping criterion = linesearch alpha is zero
  Energy initial, next-to-last, final = 
     -106.478987995275  -112.926858558108  -112.926858558108
  Force two-norm initial, final = 207.20371 31.009929
  Force max component initial, final = 142.42143 5.5954417
  Final line search alpha, max atom move = 9.6529699e-12 5.401263e-11
  Iterations, force evaluations = 53 260

MPI task timing breakdown:
Section |  min time  |  avg time  |  max time  |%varavg| %total
---------------------------------------------------------------
Pair    | 0.0044723  | 0.0044723  | 0.0044723  |   0.0 | 65.38
Neigh   | 0          | 0          | 0          |   0.0 |  0.00
Comm    | 0.00037223 | 0.00037223 | 0.00037223 |   0.0 |  5.44
Output  | 0          | 0          | 0          |   0.0 |  0.00
Modify  | 0          | 0          | 0          |   0.0 |  0.00
Other   |            | 0.001996   |            |       | 29.18

Nlocal:             54 ave          54 max          54 min
Histogram: 1 0 0 0 0 0 0 0 0 0
Nghost:            308 ave         308 max         308 min
Histogram: 1 0 0 0 0 0 0 0 0 0
Neighs:           1350 ave        1350 max        1350 min
Histogram: 1 0 0 0 0 0 0 0 0 0

Total # of neighbors = 1350
Ave neighs/atom = 25
Neighbor list builds = 0
Dangerous builds = 0
Total energy (eV) = -112.926858558108
Number of atoms = 54
Lattice constant (Angstoms) = 9.0809194283542
Total wall time: 0:00:00
