
     Program PWSCF v.7.4.1 starts on 21Oct2025 at 12:56:41 

     This program is part of the open-source Quantum ESPRESSO suite
     for quantum simulation of materials; please cite
         "P. Giannozzi et al., J. Phys.:Condens. Matter 21 395502 (2009);
         "P. Giannozzi et al., J. Phys.:Condens. Matter 29 465901 (2017);
         "P. Giannozzi et al., J. Chem. Phys. 152 154105 (2020);
          URL http://www.quantum-espresso.org", 
     in publications or presentations arising from this work. More details at
     http://www.quantum-espresso.org/quote

     Parallel version (MPI), running on     2 processors

     MPI processes distributed on     1 nodes
     584 MiB available memory on the printing compute node when the environment starts

     Waiting for input...
     Reading input from standard input
Warning: card &CELL ignored
Warning: card / ignored

     Current dimensions of program PWSCF are:
     Max number of different atomic species (ntypx) = 10
     Max number of k-points (npk) =  40000
     Max angular momentum in pseudopotentials (lmaxx) =  4
     file O.pz-rrkjus.UPF: wavefunction(s)  2S renormalized
     Message from routine setup:
     using ibrav=0 with symmetry is DISCOURAGED, use correct ibrav instead

     R & G space division:  proc/nbgrp/npool/nimage =       2
     Subspace diagonalization in iterative solution of the eigenvalue problem:
     a serial algorithm will be used


     Parallelization info
     --------------------
     sticks:   dense  smooth     PW     G-vecs:    dense   smooth      PW
     Min         516     254     74                12286     4354     709
     Max         517     255     75                12287     4355     710
     Sum        1033     509    149                24573     8709    1419

     Using Slab Decomposition



     bravais-lattice index     =            0
     lattice parameter (alat)  =       7.3227  a.u.
     unit-cell volume          =     392.6555 (a.u.)^3
     number of atoms/cell      =            5
     number of atomic types    =            3
     number of electrons       =        44.00
     number of Kohn-Sham states=           22
     kinetic-energy cutoff     =      30.0000  Ry
     charge density cutoff     =     240.0000  Ry
     scf convergence threshold =      1.0E-07
     mixing beta               =       0.7000
     number of iterations used =            8  plain     mixing
     energy convergence thresh.=      1.0E-04
     force convergence thresh. =      1.0E-03
     Exchange-correlation= SLA  PZ   NOGX NOGC
                           (   1   1   0   0   0   0   0)
     nstep                     =           50


     celldm(1)=   7.322689  celldm(2)=   0.000000  celldm(3)=   0.000000
     celldm(4)=   0.000000  celldm(5)=   0.000000  celldm(6)=   0.000000

     crystal axes: (cart. coord. in units of alat)
               a(1) = (   1.000000   0.000000   0.000000 )  
               a(2) = (   0.000000   1.000000   0.000000 )  
               a(3) = (   0.000000   0.000000   1.000000 )  

     reciprocal axes: (cart. coord. in units 2 pi/alat)
               b(1) = (  1.000000  0.000000  0.000000 )  
               b(2) = (  0.000000  1.000000  0.000000 )  
               b(3) = (  0.000000  0.000000  1.000000 )  


     PseudoPot. # 1 for O  read from file:
     /home/bond/Software/QE/qe-7.4.1/pseudo/O.pz-rrkjus.UPF
     MD5 check sum: 24fb942a68ef5d262e498166c462ef4a
     Pseudo is Ultrasoft, Zval =  6.0
     Generated by new atomic code, or converted to UPF format
     Using radial grid of 1269 points,  4 beta functions with: 
                l(1) =   0
                l(2) =   0
                l(3) =   1
                l(4) =   1
     Q(r) pseudized with 0 coefficients 


     PseudoPot. # 2 for Pb read from file:
     /home/bond/Software/QE/qe-7.4.1/pseudo/Pb.pz-d-van.UPF
     MD5 check sum: 4e1e5920686a026ae26139ac417581ff
     Pseudo is Ultrasoft, Zval = 14.0
     Generated by new atomic code, or converted to UPF format
     Using radial grid of  899 points,  6 beta functions with: 
                l(1) =   0
                l(2) =   0
                l(3) =   1
                l(4) =   1
                l(5) =   2
                l(6) =   2
     Q(r) pseudized with  8 coefficients,  rinner =    1.000   1.000   1.000
                                                       1.000   1.000

     PseudoPot. # 3 for Ti read from file:
     /home/bond/Software/QE/qe-7.4.1/pseudo/Ti.pz-sp-van_ak.UPF
     MD5 check sum: 545d0e6e05332b8871a8093f427cb0ca
     Pseudo is Ultrasoft, Zval = 12.0
     Generated by new atomic code, or converted to UPF format
     Using radial grid of  851 points,  6 beta functions with: 
                l(1) =   0
                l(2) =   0
                l(3) =   1
                l(4) =   1
                l(5) =   2
                l(6) =   2
     Q(r) pseudized with  8 coefficients,  rinner =    1.000   1.000   1.000
                                                       1.000   1.000

     atomic species   valence    mass     pseudopotential
     O                 6.00    15.99900     O ( 1.00)
     Pb               14.00   207.20000     Pb( 1.00)
     Ti               12.00    47.86700     Ti( 1.00)

      8 Sym. Ops. (no inversion) found



   Cartesian axes

     site n.     atom                  positions (alat units)
         1        Pb     tau(   1) = (   0.0000000   0.0000000   0.0000000  )
         2        Ti     tau(   2) = (   0.5000000   0.5000000   0.4800000  )
         3        O      tau(   3) = (   0.0000000   0.5000000   0.5000000  )
         4        O      tau(   4) = (   0.5000000   0.0000000   0.5000000  )
         5        O      tau(   5) = (   0.5000000   0.5000000   0.0000000  )

     number of k points=     6
                       cart. coord. in units 2pi/alat
        k(    1) = (   0.1250000   0.1250000   0.1250000), wk =   0.2500000
        k(    2) = (   0.1250000   0.1250000   0.3750000), wk =   0.2500000
        k(    3) = (   0.1250000   0.3750000   0.3750000), wk =   0.5000000
        k(    4) = (   0.3750000   0.3750000   0.3750000), wk =   0.2500000
        k(    5) = (   0.3750000  -0.1250000   0.1250000), wk =   0.5000000
        k(    6) = (   0.3750000  -0.3750000   0.1250000), wk =   0.2500000

     Dense  grid:    24573 G-vectors     FFT dimensions: (  40,  40,  40)

     Smooth grid:     8709 G-vectors     FFT dimensions: (  25,  25,  25)

     Estimated max dynamical RAM per process >      51.19 MB

     Estimated total dynamical RAM >     102.38 MB

     Initial potential from superposition of free atoms

     starting charge      42.9982, renormalised to      44.0000
     Starting wfcs are   31 randomized atomic wfcs

     total cpu time spent up to now is        1.9 secs

     Self-consistent Calculation

     iteration #  1     ecut=    30.00 Ry     beta= 0.70
     Davidson diagonalization with overlap
     ethr =  1.00E-02,  avg # of iterations =  2.0

     total cpu time spent up to now is        2.2 secs

     total energy              =    -332.61692013 Ry
     estimated scf accuracy    <       1.09876321 Ry

     iteration #  2     ecut=    30.00 Ry     beta= 0.70
     Davidson diagonalization with overlap
     ethr =  2.50E-03,  avg # of iterations =  6.5

     total cpu time spent up to now is        2.8 secs

     total energy              =    -332.37483073 Ry
     estimated scf accuracy    <       4.19415853 Ry

     iteration #  3     ecut=    30.00 Ry     beta= 0.70
     Davidson diagonalization with overlap
     ethr =  2.50E-03,  avg # of iterations =  5.2

     total cpu time spent up to now is        3.3 secs

     total energy              =    -333.15830931 Ry
     estimated scf accuracy    <       0.21779427 Ry

     iteration #  4     ecut=    30.00 Ry     beta= 0.70
     Davidson diagonalization with overlap
     ethr =  4.95E-04,  avg # of iterations =  2.0

     total cpu time spent up to now is        3.7 secs

     total energy              =    -333.15573378 Ry
     estimated scf accuracy    <       0.05940546 Ry

     iteration #  5     ecut=    30.00 Ry     beta= 0.70
     Davidson diagonalization with overlap
     ethr =  1.35E-04,  avg # of iterations =  4.8

     total cpu time spent up to now is        4.3 secs

     total energy              =    -333.18233236 Ry
     estimated scf accuracy    <       0.02226374 Ry

     iteration #  6     ecut=    30.00 Ry     beta= 0.70
     Davidson diagonalization with overlap
     ethr =  5.06E-05,  avg # of iterations =  2.3

     total cpu time spent up to now is        4.6 secs

     total energy              =    -333.18142434 Ry
     estimated scf accuracy    <       0.00700071 Ry

     iteration #  7     ecut=    30.00 Ry     beta= 0.70
     Davidson diagonalization with overlap
     ethr =  1.59E-05,  avg # of iterations =  4.5

     total cpu time spent up to now is        5.1 secs

     total energy              =    -333.18378040 Ry
     estimated scf accuracy    <       0.00051370 Ry

     iteration #  8     ecut=    30.00 Ry     beta= 0.70
     Davidson diagonalization with overlap
     ethr =  1.17E-06,  avg # of iterations =  2.0

     total cpu time spent up to now is        5.5 secs

     total energy              =    -333.18370588 Ry
     estimated scf accuracy    <       0.00045148 Ry

     iteration #  9     ecut=    30.00 Ry     beta= 0.70
     Davidson diagonalization with overlap
     ethr =  1.03E-06,  avg # of iterations =  2.0

     total cpu time spent up to now is        5.8 secs

     total energy              =    -333.18368401 Ry
     estimated scf accuracy    <       0.00018366 Ry

     iteration # 10     ecut=    30.00 Ry     beta= 0.70
     Davidson diagonalization with overlap
     ethr =  4.17E-07,  avg # of iterations =  4.0

     total cpu time spent up to now is        6.2 secs

     total energy              =    -333.18371105 Ry
     estimated scf accuracy    <       0.00000972 Ry

     iteration # 11     ecut=    30.00 Ry     beta= 0.70
     Davidson diagonalization with overlap
     ethr =  2.21E-08,  avg # of iterations =  5.5

     total cpu time spent up to now is        6.7 secs

     total energy              =    -333.18371658 Ry
     estimated scf accuracy    <       0.00000284 Ry

     iteration # 12     ecut=    30.00 Ry     beta= 0.70
     Davidson diagonalization with overlap
     ethr =  6.44E-09,  avg # of iterations =  2.0

     total cpu time spent up to now is        7.1 secs

     total energy              =    -333.18371623 Ry
     estimated scf accuracy    <       0.00000155 Ry

     iteration # 13     ecut=    30.00 Ry     beta= 0.70
     Davidson diagonalization with overlap
     ethr =  3.51E-09,  avg # of iterations =  3.5

     total cpu time spent up to now is        7.5 secs

     total energy              =    -333.18371637 Ry
     estimated scf accuracy    <       0.00000021 Ry

     iteration # 14     ecut=    30.00 Ry     beta= 0.70
     Davidson diagonalization with overlap
     ethr =  4.68E-10,  avg # of iterations =  4.7

     total cpu time spent up to now is        7.9 secs

     End of self-consistent calculation

          k = 0.1250 0.1250 0.1250 (  1090 PWs)   bands (ev):

   -44.6233 -21.2543 -21.2304 -21.2294  -6.3258  -5.2623  -5.2351  -3.9591
    -3.9566  -3.9437  -3.7763  -3.7733   4.6619   7.3083   7.3216   8.0926
     9.1077   9.1418   9.8619   9.8855  10.0096  10.1597

          k = 0.1250 0.1250 0.3750 (  1095 PWs)   bands (ev):

   -44.6221 -21.3124 -21.2282 -21.2272  -5.9037  -5.1129  -5.0990  -4.0203
    -3.9542  -3.9400  -3.8717  -3.7456   3.9163   6.8390   7.3073   7.8630
     8.4774   8.7138   9.4130   9.9410  10.1477  10.8976

          k = 0.1250 0.3750 0.3750 (  1087 PWs)   bands (ev):

   -44.6208 -21.3088 -21.2841 -21.2256  -5.6886  -5.0091  -4.9318  -3.9937
    -3.9493  -3.8957  -3.8055  -3.6503   3.5534   6.7549   6.9077   7.1982
     7.5076   8.7025   9.4395   9.5030  10.0560  10.7216

          k = 0.3750 0.3750 0.3750 (  1082 PWs)   bands (ev):

   -44.6195 -21.3063 -21.2817 -21.2815  -5.3007  -5.1357  -5.1152  -3.9055
    -3.9021  -3.6144  -3.5501  -3.5408   4.1752   5.9391   5.9615   6.7175
     7.0622   7.0782   7.9956  10.6700  10.6987  10.7660

          k = 0.3750-0.1250 0.1250 (  1095 PWs)   bands (ev):

   -44.6221 -21.2878 -21.2520 -21.2277  -5.9218  -5.1357  -5.0664  -4.0189
    -3.9525  -3.9406  -3.8751  -3.7430   3.9273   6.8639   7.3565   7.8602
     8.4569   8.7740   9.3645   9.9452  10.0895  10.8694

          k = 0.3750-0.3750 0.1250 (  1087 PWs)   bands (ev):

   -44.6208 -21.2846 -21.2837 -21.2499  -5.7235  -4.9898  -4.9172  -3.9907
    -3.9485  -3.8923  -3.8042  -3.6623   3.5634   6.8305   6.8656   7.1844
     7.4904   8.6877   9.4765   9.5000  10.0453  10.7559

     highest occupied level (ev):    10.8976

!    total energy              =    -333.18371643 Ry
     estimated scf accuracy    <       0.00000002 Ry

     The total energy is the sum of the following terms:
     one-electron contribution =     -76.59608223 Ry
     hartree contribution      =      66.29590679 Ry
     xc contribution           =     -49.65434677 Ry
     ewald contribution        =    -273.22919423 Ry

     convergence has been achieved in  14 iterations

     Forces acting on atoms (cartesian axes, Ry/au):

     atom    1 type  2   force =     0.00000000    0.00000000   -0.00870512
     atom    2 type  3   force =     0.00000000    0.00000000    0.01354542
     atom    3 type  1   force =     0.00000000    0.00000000    0.00018616
     atom    4 type  1   force =     0.00000000    0.00000000    0.00018616
     atom    5 type  1   force =     0.00000000    0.00000000   -0.00521262

     Total force =     0.005219     Total SCF correction =     0.000030


     Computing stress (Cartesian axis) and pressure

          total   stress  (Ry/bohr**3)                   (kbar)     P=      -11.13
  -0.00009607   0.00000000   0.00000000          -14.13        0.00        0.00
   0.00000000  -0.00009607   0.00000000            0.00      -14.13        0.00
   0.00000000   0.00000000  -0.00003494            0.00        0.00       -5.14


     BFGS Geometry Optimization
     Energy error            =      2.8E-05 Ry
     Gradient error          =      5.2E-03 Ry/Bohr

     number of scf cycles    =   1
     number of bfgs steps    =   0

     energy             new  =    -333.1837164338 Ry

     new trust radius        =       0.0052126176 bohr
     new conv_thr            =       0.0000001000 Ry


ATOMIC_POSITIONS (angstrom)
Pb               0.0000000000        0.0000000000        0.0000000000    0   0   0
Ti               1.9375000000        1.9375000000        1.8600000000    0   0   0
O                0.0000000000        1.9375000000        1.9375985097
O                1.9375000000        0.0000000000        1.9375985097
O                1.9375000000        1.9375000000       -0.0027583984


     Message from routine punch:
     Nothing written, as per user request (disk_io='none')
     NEW-OLD atomic charge density approx. for the potential

     total cpu time spent up to now is        9.4 secs

     Self-consistent Calculation

     iteration #  1     ecut=    30.00 Ry     beta= 0.70
     Davidson diagonalization with overlap
     ethr =  1.00E-06,  avg # of iterations =  2.7

     Threshold (ethr) on eigenvalues was too large:
     Diagonalizing with lowered threshold

     Davidson diagonalization with overlap
     ethr =  6.67E-09,  avg # of iterations =  6.2

     total cpu time spent up to now is       10.3 secs

     total energy              =    -333.18373998 Ry
     estimated scf accuracy    <       0.00000466 Ry

     iteration #  2     ecut=    30.00 Ry     beta= 0.70
     Davidson diagonalization with overlap
     ethr =  1.06E-08,  avg # of iterations =  2.7

     total cpu time spent up to now is       10.7 secs

     total energy              =    -333.18374098 Ry
     estimated scf accuracy    <       0.00000052 Ry

     iteration #  3     ecut=    30.00 Ry     beta= 0.70
     Davidson diagonalization with overlap
     ethr =  1.19E-09,  avg # of iterations =  3.5

     total cpu time spent up to now is       11.2 secs

     End of self-consistent calculation

          k = 0.1250 0.1250 0.1250 (  1090 PWs)   bands (ev):

   -44.6258 -21.2551 -21.2330 -21.2320  -6.3260  -5.2617  -5.2356  -3.9588
    -3.9564  -3.9434  -3.7760  -3.7731   4.6623   7.3084   7.3210   8.0922
     9.1099   9.1429   9.8659   9.8859  10.0091  10.1595

          k = 0.1250 0.1250 0.3750 (  1095 PWs)   bands (ev):

   -44.6246 -21.3132 -21.2308 -21.2298  -5.9043  -5.1134  -5.0981  -4.0200
    -3.9539  -3.9397  -3.8716  -3.7453   3.9173   6.8389   7.3083   7.8620
     8.4778   8.7162   9.4130   9.9414  10.1471  10.8975

          k = 0.1250 0.3750 0.3750 (  1087 PWs)   bands (ev):

   -44.6233 -21.3096 -21.2867 -21.2282  -5.6891  -5.0085  -4.9319  -3.9933
    -3.9490  -3.8954  -3.8053  -3.6502   3.5541   6.7566   6.9064   7.1980
     7.5075   8.7020   9.4415   9.5029  10.0566  10.7225

          k = 0.3750 0.3750 0.3750 (  1082 PWs)   bands (ev):

   -44.6221 -21.3071 -21.2843 -21.2840  -5.3006  -5.1353  -5.1156  -3.9051
    -3.9019  -3.6141  -3.5497  -3.5408   4.1756   5.9402   5.9615   6.7171
     7.0621   7.0773   7.9962  10.6714  10.6991  10.7663

          k = 0.3750-0.1250 0.1250 (  1095 PWs)   bands (ev):

   -44.6246 -21.2903 -21.2529 -21.2303  -5.9217  -5.1353  -5.0668  -4.0187
    -3.9522  -3.9403  -3.8748  -3.7428   3.9277   6.8634   7.3567   7.8601
     8.4569   8.7740   9.3666   9.9458  10.0910  10.8702

          k = 0.3750-0.3750 0.1250 (  1087 PWs)   bands (ev):

   -44.6233 -21.2872 -21.2863 -21.2507  -5.7227  -4.9902  -4.9177  -3.9905
    -3.9482  -3.8922  -3.8040  -3.6617   3.5635   6.8300   6.8650   7.1859
     7.4922   8.6876   9.4769   9.4998  10.0455  10.7555

     highest occupied level (ev):    10.8975

!    total energy              =    -333.18374107 Ry
     estimated scf accuracy    <       0.00000004 Ry

     The total energy is the sum of the following terms:
     one-electron contribution =     -76.57701678 Ry
     hartree contribution      =      66.28578412 Ry
     xc contribution           =     -49.65366658 Ry
     ewald contribution        =    -273.23884183 Ry

     convergence has been achieved in   3 iterations

     Forces acting on atoms (cartesian axes, Ry/au):

     atom    1 type  2   force =     0.00000000    0.00000000   -0.00853801
     atom    2 type  3   force =     0.00000000    0.00000000    0.01302926
     atom    3 type  1   force =     0.00000000    0.00000000   -0.00037498
     atom    4 type  1   force =     0.00000000    0.00000000   -0.00037498
     atom    5 type  1   force =     0.00000000    0.00000000   -0.00374130

     Total force =     0.003779     Total SCF correction =     0.000053


     Computing stress (Cartesian axis) and pressure

          total   stress  (Ry/bohr**3)                   (kbar)     P=      -11.26
  -0.00009533   0.00000000   0.00000000          -14.02        0.00        0.00
   0.00000000  -0.00009533   0.00000000            0.00      -14.02        0.00
   0.00000000   0.00000000  -0.00003903            0.00        0.00       -5.74

     Energy error            =      2.5E-05 Ry
     Gradient error          =      3.7E-03 Ry/Bohr

     number of scf cycles    =   2
     number of bfgs steps    =   1

     energy             old  =    -333.1837164338 Ry
     energy             new  =    -333.1837410706 Ry

     CASE: energy            _new < energy            _old

     new trust radius        =       0.0057338793 bohr
     new conv_thr            =       0.0000000010 Ry


ATOMIC_POSITIONS (angstrom)
Pb               0.0000000000        0.0000000000        0.0000000000    0   0   0
Ti               1.9375000000        1.9375000000        1.8600000000    0   0   0
O                0.0000000000        1.9375000000        1.9373288895
O                1.9375000000        0.0000000000        1.9373288895
O                1.9375000000        1.9375000000       -0.0057926367


     Message from routine punch:
     Nothing written, as per user request (disk_io='none')
     NEW-OLD atomic charge density approx. for the potential

     total cpu time spent up to now is       12.8 secs

     Self-consistent Calculation

     iteration #  1     ecut=    30.00 Ry     beta= 0.70
     Davidson diagonalization with overlap
     ethr =  1.00E-06,  avg # of iterations =  3.0

     Threshold (ethr) on eigenvalues was too large:
     Diagonalizing with lowered threshold

     Davidson diagonalization with overlap
     ethr =  7.78E-09,  avg # of iterations =  6.3

     total cpu time spent up to now is       13.6 secs

     total energy              =    -333.18375683 Ry
     estimated scf accuracy    <       0.00000554 Ry

     iteration #  2     ecut=    30.00 Ry     beta= 0.70
     Davidson diagonalization with overlap
     ethr =  1.26E-08,  avg # of iterations =  3.7

     total cpu time spent up to now is       14.0 secs

     total energy              =    -333.18375789 Ry
     estimated scf accuracy    <       0.00000085 Ry

     iteration #  3     ecut=    30.00 Ry     beta= 0.70
     Davidson diagonalization with overlap
     ethr =  1.93E-09,  avg # of iterations =  4.7

     total cpu time spent up to now is       14.6 secs

     total energy              =    -333.18375807 Ry
     estimated scf accuracy    <       0.00000016 Ry

     iteration #  4     ecut=    30.00 Ry     beta= 0.70
     Davidson diagonalization with overlap
     ethr =  3.74E-10,  avg # of iterations =  4.7

     total cpu time spent up to now is       15.1 secs

     total energy              =    -333.18375811 Ry
     estimated scf accuracy    <       0.00000006 Ry

     iteration #  5     ecut=    30.00 Ry     beta= 0.70
     Davidson diagonalization with overlap
     ethr =  1.30E-10,  avg # of iterations =  4.3

     total cpu time spent up to now is       15.5 secs

     End of self-consistent calculation

          k = 0.1250 0.1250 0.1250 (  1090 PWs)   bands (ev):

   -44.6287 -21.2562 -21.2359 -21.2348  -6.3261  -5.2605  -5.2364  -3.9581
    -3.9559  -3.9428  -3.7753  -3.7726   4.6627   7.3087   7.3204   8.0919
     9.1123   9.1443   9.8711   9.8867  10.0081  10.1592

          k = 0.1250 0.1250 0.3750 (  1095 PWs)   bands (ev):

   -44.6275 -21.3143 -21.2337 -21.2327  -5.9051  -5.1143  -5.0962  -4.0194
    -3.9532  -3.9392  -3.8712  -3.7446   3.9185   6.8395   7.3100   7.8608
     8.4778   8.7194   9.4128   9.9421  10.1460  10.8971

          k = 0.1250 0.3750 0.3750 (  1087 PWs)   bands (ev):

   -44.6262 -21.3107 -21.2895 -21.2311  -5.6898  -5.0074  -4.9318  -3.9927
    -3.9484  -3.8948  -3.8047  -3.6499   3.5549   6.7590   6.9047   7.1978
     7.5073   8.7012   9.4438   9.5026  10.0572  10.7239

          k = 0.3750 0.3750 0.3750 (  1082 PWs)   bands (ev):

   -44.6250 -21.3082 -21.2872 -21.2869  -5.3003  -5.1344  -5.1163  -3.9044
    -3.9014  -3.6135  -3.5490  -3.5407   4.1761   5.9415   5.9614   6.7169
     7.0620   7.0759   7.9969  10.6733  10.6995  10.7665

          k = 0.3750-0.1250 0.1250 (  1095 PWs)   bands (ev):

   -44.6275 -21.2932 -21.2539 -21.2332  -5.9213  -5.1345  -5.0676  -4.0181
    -3.9516  -3.9398  -3.8742  -3.7423   3.9282   6.8625   7.3569   7.8601
     8.4572   8.7738   9.3693   9.9466  10.0931  10.8714

          k = 0.3750-0.3750 0.1250 (  1087 PWs)   bands (ev):

   -44.6262 -21.2901 -21.2891 -21.2518  -5.7211  -4.9908  -4.9186  -3.9900
    -3.9476  -3.8918  -3.8035  -3.6607   3.5635   6.8293   6.8643   7.1874
     7.4940   8.6882   9.4772   9.4997  10.0462  10.7548

     highest occupied level (ev):    10.8971

!    total energy              =    -333.18375812 Ry
     estimated scf accuracy    <          8.2E-10 Ry

     The total energy is the sum of the following terms:
     one-electron contribution =     -76.55802044 Ry
     hartree contribution      =      66.27533580 Ry
     xc contribution           =     -49.65286713 Ry
     ewald contribution        =    -273.24820635 Ry

     convergence has been achieved in   5 iterations

     Forces acting on atoms (cartesian axes, Ry/au):

     atom    1 type  2   force =     0.00000000    0.00000000   -0.00886449
     atom    2 type  3   force =     0.00000000    0.00000000    0.01275742
     atom    3 type  1   force =     0.00000000    0.00000000   -0.00085418
     atom    4 type  1   force =     0.00000000    0.00000000   -0.00085418
     atom    5 type  1   force =     0.00000000    0.00000000   -0.00218456

     Total force =     0.002496     Total SCF correction =     0.000009


     Computing stress (Cartesian axis) and pressure

          total   stress  (Ry/bohr**3)                   (kbar)     P=      -11.89
  -0.00009799   0.00000000   0.00000000          -14.41        0.00        0.00
   0.00000000  -0.00009799   0.00000000            0.00      -14.41        0.00
   0.00000000   0.00000000  -0.00004658            0.00        0.00       -6.85

     Energy error            =      1.7E-05 Ry
     Gradient error          =      2.2E-03 Ry/Bohr

     number of scf cycles    =   3
     number of bfgs steps    =   2

     energy             old  =    -333.1837410706 Ry
     energy             new  =    -333.1837581219 Ry

     CASE: energy            _new < energy            _old

     new trust radius        =       0.0086008190 bohr
     new conv_thr            =       0.0000000010 Ry


ATOMIC_POSITIONS (angstrom)
Pb               0.0000000000        0.0000000000        0.0000000000    0   0   0
Ti               1.9375000000        1.9375000000        1.8600000000    0   0   0
O                0.0000000000        1.9375000000        1.9362446319
O                1.9375000000        0.0000000000        1.9362446319
O                1.9375000000        1.9375000000       -0.0103439941


     Message from routine punch:
     Nothing written, as per user request (disk_io='none')
     NEW-OLD atomic charge density approx. for the potential

     total cpu time spent up to now is       17.1 secs

     Self-consistent Calculation

     iteration #  1     ecut=    30.00 Ry     beta= 0.70
     Davidson diagonalization with overlap
     ethr =  1.00E-06,  avg # of iterations =  3.7

     Threshold (ethr) on eigenvalues was too large:
     Diagonalizing with lowered threshold

     Davidson diagonalization with overlap
     ethr =  2.29E-08,  avg # of iterations =  5.0

     total cpu time spent up to now is       17.9 secs

     total energy              =    -333.18376928 Ry
     estimated scf accuracy    <       0.00001252 Ry

     iteration #  2     ecut=    30.00 Ry     beta= 0.70
     Davidson diagonalization with overlap
     ethr =  2.84E-08,  avg # of iterations =  4.3

     total cpu time spent up to now is       18.3 secs

     total energy              =    -333.18377037 Ry
     estimated scf accuracy    <       0.00000503 Ry

     iteration #  3     ecut=    30.00 Ry     beta= 0.70
     Davidson diagonalization with overlap
     ethr =  1.14E-08,  avg # of iterations =  4.7

     total cpu time spent up to now is       18.7 secs

     total energy              =    -333.18377157 Ry
     estimated scf accuracy    <       0.00000265 Ry

     iteration #  4     ecut=    30.00 Ry     beta= 0.70
     Davidson diagonalization with overlap
     ethr =  6.02E-09,  avg # of iterations =  3.7

     total cpu time spent up to now is       19.2 secs

     total energy              =    -333.18377201 Ry
     estimated scf accuracy    <       0.00000005 Ry

     iteration #  5     ecut=    30.00 Ry     beta= 0.70
     Davidson diagonalization with overlap
     ethr =  1.18E-10,  avg # of iterations =  6.5

     total cpu time spent up to now is       19.7 secs

     total energy              =    -333.18377207 Ry
     estimated scf accuracy    <       0.00000015 Ry

     iteration #  6     ecut=    30.00 Ry     beta= 0.70
     Davidson diagonalization with overlap
     ethr =  1.18E-10,  avg # of iterations =  4.2

     total cpu time spent up to now is       20.1 secs

     total energy              =    -333.18377207 Ry
     estimated scf accuracy    <       0.00000004 Ry

     iteration #  7     ecut=    30.00 Ry     beta= 0.70
     Davidson diagonalization with overlap
     ethr =  9.00E-11,  avg # of iterations =  4.7

     total cpu time spent up to now is       20.6 secs

     End of self-consistent calculation

          k = 0.1250 0.1250 0.1250 (  1090 PWs)   bands (ev):

   -44.6326 -21.2574 -21.2397 -21.2387  -6.3264  -5.2592  -5.2376  -3.9574
    -3.9553  -3.9423  -3.7746  -3.7722   4.6634   7.3090   7.3195   8.0916
     9.1161   9.1459   9.8792   9.8879  10.0065  10.1580

          k = 0.1250 0.1250 0.3750 (  1095 PWs)   bands (ev):

   -44.6314 -21.3155 -21.2376 -21.2366  -5.9063  -5.1157  -5.0942  -4.0187
    -3.9525  -3.9387  -3.8708  -3.7439   3.9203   6.8397   7.3125   7.8594
     8.4775   8.7235   9.4124   9.9431  10.1445  10.8964

          k = 0.1250 0.3750 0.3750 (  1087 PWs)   bands (ev):

   -44.6301 -21.3119 -21.2934 -21.2350  -5.6909  -5.0062  -4.9319  -3.9920
    -3.9478  -3.8941  -3.8041  -3.6497   3.5559   6.7626   6.9017   7.1974
     7.5070   8.7001   9.4467   9.5022  10.0580  10.7256

          k = 0.3750 0.3750 0.3750 (  1082 PWs)   bands (ev):

   -44.6288 -21.3094 -21.2910 -21.2908  -5.3001  -5.1335  -5.1171  -3.9037
    -3.9009  -3.6128  -3.5482  -3.5406   4.1767   5.9432   5.9611   6.7167
     7.0612   7.0735   7.9977  10.6758  10.6999  10.7669

          k = 0.3750-0.1250 0.1250 (  1095 PWs)   bands (ev):

   -44.6314 -21.2971 -21.2552 -21.2371  -5.9211  -5.1339  -5.0686  -4.0175
    -3.9511  -3.9392  -3.8735  -3.7419   3.9288   6.8613   7.3569   7.8599
     8.4575   8.7731   9.3728   9.9477  10.0959  10.8727

          k = 0.3750-0.3750 0.1250 (  1087 PWs)   bands (ev):

   -44.6301 -21.2939 -21.2930 -21.2531  -5.7193  -4.9916  -4.9197  -3.9895
    -3.9471  -3.8914  -3.8030  -3.6596   3.5635   6.8284   6.8631   7.1893
     7.4962   8.6884   9.4773   9.4995  10.0470  10.7538

     highest occupied level (ev):    10.8964

!    total energy              =    -333.18377208 Ry
     estimated scf accuracy    <          4.5E-10 Ry

     The total energy is the sum of the following terms:
     one-electron contribution =     -76.53434091 Ry
     hartree contribution      =      66.26249140 Ry
     xc contribution           =     -49.65191084 Ry
     ewald contribution        =    -273.26001172 Ry

     convergence has been achieved in   7 iterations

     Forces acting on atoms (cartesian axes, Ry/au):

     atom    1 type  2   force =     0.00000000    0.00000000   -0.00891610
     atom    2 type  3   force =     0.00000000    0.00000000    0.01220427
     atom    3 type  1   force =     0.00000000    0.00000000   -0.00154171
     atom    4 type  1   force =     0.00000000    0.00000000   -0.00154171
     atom    5 type  1   force =     0.00000000    0.00000000   -0.00020474

     Total force =     0.002190     Total SCF correction =     0.000024


     Computing stress (Cartesian axis) and pressure

          total   stress  (Ry/bohr**3)                   (kbar)     P=      -12.41
  -0.00009905   0.00000000   0.00000000          -14.57        0.00        0.00
   0.00000000  -0.00009905   0.00000000            0.00      -14.57        0.00
   0.00000000   0.00000000  -0.00005500            0.00        0.00       -8.09

     Energy error            =      1.4E-05 Ry
     Gradient error          =      1.5E-03 Ry/Bohr

     number of scf cycles    =   4
     number of bfgs steps    =   3

     energy             old  =    -333.1837581219 Ry
     energy             new  =    -333.1837720776 Ry

     CASE: energy            _new < energy            _old

     new trust radius        =       0.0063916159 bohr
     new conv_thr            =       0.0000000010 Ry


ATOMIC_POSITIONS (angstrom)
Pb               0.0000000000        0.0000000000        0.0000000000    0   0   0
Ti               1.9375000000        1.9375000000        1.8600000000    0   0   0
O                0.0000000000        1.9375000000        1.9344837782
O                1.9375000000        0.0000000000        1.9344837782
O                1.9375000000        1.9375000000       -0.0137262915


     Message from routine punch:
     Nothing written, as per user request (disk_io='none')
     NEW-OLD atomic charge density approx. for the potential

     total cpu time spent up to now is       22.1 secs

     Self-consistent Calculation

     iteration #  1     ecut=    30.00 Ry     beta= 0.70
     Davidson diagonalization with overlap
     ethr =  1.00E-06,  avg # of iterations =  3.3

     Threshold (ethr) on eigenvalues was too large:
     Diagonalizing with lowered threshold

     Davidson diagonalization with overlap
     ethr =  1.16E-08,  avg # of iterations =  6.0

     total cpu time spent up to now is       23.0 secs

     total energy              =    -333.18377955 Ry
     estimated scf accuracy    <       0.00000745 Ry

     iteration #  2     ecut=    30.00 Ry     beta= 0.70
     Davidson diagonalization with overlap
     ethr =  1.69E-08,  avg # of iterations =  4.3

     total cpu time spent up to now is       23.5 secs

     total energy              =    -333.18377993 Ry
     estimated scf accuracy    <       0.00000264 Ry

     iteration #  3     ecut=    30.00 Ry     beta= 0.70
     Davidson diagonalization with overlap
     ethr =  6.01E-09,  avg # of iterations =  5.0

     total cpu time spent up to now is       24.0 secs

     total energy              =    -333.18378060 Ry
     estimated scf accuracy    <       0.00000203 Ry

     iteration #  4     ecut=    30.00 Ry     beta= 0.70
     Davidson diagonalization with overlap
     ethr =  4.61E-09,  avg # of iterations =  3.5

     total cpu time spent up to now is       24.4 secs

     total energy              =    -333.18378088 Ry
     estimated scf accuracy    <       0.00000007 Ry

     iteration #  5     ecut=    30.00 Ry     beta= 0.70
     Davidson diagonalization with overlap
     ethr =  1.55E-10,  avg # of iterations =  6.5

     total cpu time spent up to now is       25.0 secs

     total energy              =    -333.18378095 Ry
     estimated scf accuracy    <       0.00000016 Ry

     iteration #  6     ecut=    30.00 Ry     beta= 0.70
     Davidson diagonalization with overlap
     ethr =  1.55E-10,  avg # of iterations =  3.3

     total cpu time spent up to now is       25.4 secs

     total energy              =    -333.18378094 Ry
     estimated scf accuracy    <       0.00000006 Ry

     iteration #  7     ecut=    30.00 Ry     beta= 0.70
     Davidson diagonalization with overlap
     ethr =  1.34E-10,  avg # of iterations =  4.3

     total cpu time spent up to now is       25.8 secs

     total energy              =    -333.18378095 Ry
     estimated scf accuracy    <          2.5E-09 Ry

     iteration #  8     ecut=    30.00 Ry     beta= 0.70
     Davidson diagonalization with overlap
     ethr =  5.77E-12,  avg # of iterations =  5.5

     total cpu time spent up to now is       26.3 secs

     total energy              =    -333.18378095 Ry
     estimated scf accuracy    <          2.6E-09 Ry

     iteration #  9     ecut=    30.00 Ry     beta= 0.70
     Davidson diagonalization with overlap
     ethr =  5.77E-12,  avg # of iterations =  3.0

     total cpu time spent up to now is       26.6 secs

     End of self-consistent calculation

          k = 0.1250 0.1250 0.1250 (  1090 PWs)   bands (ev):

   -44.6354 -21.2585 -21.2426 -21.2416  -6.3266  -5.2585  -5.2386  -3.9569
    -3.9549  -3.9418  -3.7741  -3.7719   4.6638   7.3093   7.3189   8.0916
     9.1189   9.1469   9.8859   9.8891  10.0049  10.1561

          k = 0.1250 0.1250 0.3750 (  1095 PWs)   bands (ev):

   -44.6342 -21.3166 -21.2405 -21.2395  -5.9073  -5.1169  -5.0928  -4.0181
    -3.9519  -3.9382  -3.8704  -3.7434   3.9216   6.8400   7.3149   7.8587
     8.4766   8.7264   9.4118   9.9442  10.1431  10.8956

          k = 0.1250 0.3750 0.3750 (  1087 PWs)   bands (ev):

   -44.6329 -21.3130 -21.2963 -21.2379  -5.6919  -5.0054  -4.9320  -3.9914
    -3.9473  -3.8936  -3.8036  -3.6496   3.5566   6.7658   6.8987   7.1970
     7.5066   8.6990   9.4486   9.5017  10.0584  10.7269

          k = 0.3750 0.3750 0.3750 (  1082 PWs)   bands (ev):

   -44.6317 -21.3105 -21.2939 -21.2937  -5.3000  -5.1328  -5.1179  -3.9031
    -3.9005  -3.6123  -3.5476  -3.5405   4.1770   5.9444   5.9606   6.7169
     7.0599   7.0711   7.9982  10.6776  10.7000  10.7672

          k = 0.3750-0.1250 0.1250 (  1095 PWs)   bands (ev):

   -44.6342 -21.3000 -21.2563 -21.2400  -5.9209  -5.1336  -5.0694  -4.0171
    -3.9506  -3.9387  -3.8729  -3.7415   3.9292   6.8601   7.3566   7.8598
     8.4578   8.7722   9.3753   9.9486  10.0982  10.8735

          k = 0.3750-0.3750 0.1250 (  1087 PWs)   bands (ev):

   -44.6329 -21.2968 -21.2959 -21.2541  -5.7179  -4.9923  -4.9206  -3.9892
    -3.9466  -3.8910  -3.8026  -3.6587   3.5634   6.8276   6.8619   7.1903
     7.4972   8.6883   9.4769   9.4993  10.0477  10.7528

     highest occupied level (ev):    10.8956

!    total energy              =    -333.18378095 Ry
     estimated scf accuracy    <          4.2E-10 Ry

     The total energy is the sum of the following terms:
     one-electron contribution =     -76.52175912 Ry
     hartree contribution      =      66.25554782 Ry
     xc contribution           =     -49.65135662 Ry
     ewald contribution        =    -273.26621303 Ry

     convergence has been achieved in   9 iterations

     Forces acting on atoms (cartesian axes, Ry/au):

     atom    1 type  2   force =     0.00000000    0.00000000   -0.00883975
     atom    2 type  3   force =     0.00000000    0.00000000    0.01180283
     atom    3 type  1   force =     0.00000000    0.00000000   -0.00192097
     atom    4 type  1   force =     0.00000000    0.00000000   -0.00192097
     atom    5 type  1   force =     0.00000000    0.00000000    0.00087886

     Total force =     0.002855     Total SCF correction =     0.000005


     Computing stress (Cartesian axis) and pressure

          total   stress  (Ry/bohr**3)                   (kbar)     P=      -12.76
  -0.00009966   0.00000000   0.00000000          -14.66        0.00        0.00
   0.00000000  -0.00009966   0.00000000            0.00      -14.66        0.00
   0.00000000   0.00000000  -0.00006084            0.00        0.00       -8.95

     Energy error            =      8.9E-06 Ry
     Gradient error          =      1.9E-03 Ry/Bohr

     number of scf cycles    =   5
     number of bfgs steps    =   4

     energy             old  =    -333.1837720776 Ry
     energy             new  =    -333.1837809520 Ry

     CASE: energy            _new < energy            _old

     new trust radius        =       0.0070307775 bohr
     new conv_thr            =       0.0000000010 Ry


ATOMIC_POSITIONS (angstrom)
Pb               0.0000000000        0.0000000000        0.0000000000    0   0   0
Ti               1.9375000000        1.9375000000        1.8600000000    0   0   0
O                0.0000000000        1.9375000000        1.9316347267
O                1.9375000000        0.0000000000        1.9316347267
O                1.9375000000        1.9375000000       -0.0174468188


     Message from routine punch:
     Nothing written, as per user request (disk_io='none')
     NEW-OLD atomic charge density approx. for the potential

     total cpu time spent up to now is       28.2 secs

     Self-consistent Calculation

     iteration #  1     ecut=    30.00 Ry     beta= 0.70
     Davidson diagonalization with overlap
     ethr =  1.00E-06,  avg # of iterations =  3.7

     Threshold (ethr) on eigenvalues was too large:
     Diagonalizing with lowered threshold

     Davidson diagonalization with overlap
     ethr =  1.74E-08,  avg # of iterations =  5.2

     total cpu time spent up to now is       28.9 secs

     total energy              =    -333.18379299 Ry
     estimated scf accuracy    <       0.00001035 Ry

     iteration #  2     ecut=    30.00 Ry     beta= 0.70
     Davidson diagonalization with overlap
     ethr =  2.35E-08,  avg # of iterations =  2.8

     total cpu time spent up to now is       29.3 secs

     total energy              =    -333.18379407 Ry
     estimated scf accuracy    <       0.00000139 Ry

     iteration #  3     ecut=    30.00 Ry     beta= 0.70
     Davidson diagonalization with overlap
     ethr =  3.16E-09,  avg # of iterations =  4.7

     total cpu time spent up to now is       29.8 secs

     total energy              =    -333.18379427 Ry
     estimated scf accuracy    <       0.00000142 Ry

     iteration #  4     ecut=    30.00 Ry     beta= 0.70
     Davidson diagonalization with overlap
     ethr =  3.16E-09,  avg # of iterations =  3.8

     total cpu time spent up to now is       30.2 secs

     total energy              =    -333.18379458 Ry
     estimated scf accuracy    <       0.00000006 Ry

     iteration #  5     ecut=    30.00 Ry     beta= 0.70
     Davidson diagonalization with overlap
     ethr =  1.40E-10,  avg # of iterations =  4.7

     total cpu time spent up to now is       30.7 secs

     total energy              =    -333.18379459 Ry
     estimated scf accuracy    <       0.00000005 Ry

     iteration #  6     ecut=    30.00 Ry     beta= 0.70
     Davidson diagonalization with overlap
     ethr =  1.05E-10,  avg # of iterations =  4.2

     total cpu time spent up to now is       31.1 secs

     total energy              =    -333.18379460 Ry
     estimated scf accuracy    <          1.6E-09 Ry

     iteration #  7     ecut=    30.00 Ry     beta= 0.70
     Davidson diagonalization with overlap
     ethr =  3.71E-12,  avg # of iterations =  4.8

     total cpu time spent up to now is       31.6 secs

     End of self-consistent calculation

          k = 0.1250 0.1250 0.1250 (  1090 PWs)   bands (ev):

   -44.6381 -21.2593 -21.2454 -21.2444  -6.3268  -5.2577  -5.2400  -3.9564
    -3.9546  -3.9414  -3.7737  -3.7717   4.6643   7.3098   7.3182   8.0918
     9.1221   9.1479   9.8907   9.8942  10.0027  10.1533

          k = 0.1250 0.1250 0.3750 (  1095 PWs)   bands (ev):

   -44.6369 -21.3173 -21.2432 -21.2423  -5.9084  -5.1185  -5.0911  -4.0176
    -3.9514  -3.9379  -3.8702  -3.7429   3.9231   6.8404   7.3181   7.8583
     8.4751   8.7295   9.4109   9.9456  10.1413  10.8944

          k = 0.1250 0.3750 0.3750 (  1087 PWs)   bands (ev):

   -44.6356 -21.3138 -21.2991 -21.2406  -5.6930  -5.0046  -4.9320  -3.9910
    -3.9468  -3.8931  -3.8032  -3.6495   3.5572   6.7698   6.8949   7.1966
     7.5062   8.6978   9.4503   9.5012  10.0587  10.7284

          k = 0.3750 0.3750 0.3750 (  1082 PWs)   bands (ev):

   -44.6343 -21.3113 -21.2967 -21.2964  -5.2998  -5.1321  -5.1187  -3.9026
    -3.9002  -3.6118  -3.5470  -3.5405   4.1772   5.9456   5.9600   6.7173
     7.0580   7.0679   7.9986  10.6797  10.7000  10.7675

          k = 0.3750-0.1250 0.1250 (  1095 PWs)   bands (ev):

   -44.6369 -21.3027 -21.2571 -21.2427  -5.9206  -5.1334  -5.0703  -4.0167
    -3.9502  -3.9383  -3.8724  -3.7412   3.9296   6.8587   7.3561   7.8597
     8.4582   8.7708   9.3779   9.9496  10.1009  10.8743

          k = 0.3750-0.3750 0.1250 (  1087 PWs)   bands (ev):

   -44.6356 -21.2996 -21.2987 -21.2549  -5.7163  -4.9931  -4.9217  -3.9889
    -3.9462  -3.8907  -3.8023  -3.6579   3.5631   6.8267   6.8604   7.1910
     7.4980   8.6882   9.4762   9.4991  10.0486  10.7517

     highest occupied level (ev):    10.8944

!    total energy              =    -333.18379460 Ry
     estimated scf accuracy    <          8.5E-10 Ry

     The total energy is the sum of the following terms:
     one-electron contribution =     -76.51255690 Ry
     hartree contribution      =      66.25022516 Ry
     xc contribution           =     -49.65083007 Ry
     ewald contribution        =    -273.27063279 Ry

     convergence has been achieved in   7 iterations

     Forces acting on atoms (cartesian axes, Ry/au):

     atom    1 type  2   force =     0.00000000    0.00000000   -0.00869485
     atom    2 type  3   force =     0.00000000    0.00000000    0.01139915
     atom    3 type  1   force =     0.00000000    0.00000000   -0.00220703
     atom    4 type  1   force =     0.00000000    0.00000000   -0.00220703
     atom    5 type  1   force =     0.00000000    0.00000000    0.00170975

     Total force =     0.003559     Total SCF correction =     0.000015


     Computing stress (Cartesian axis) and pressure

          total   stress  (Ry/bohr**3)                   (kbar)     P=      -13.08
  -0.00010005   0.00000000   0.00000000          -14.72        0.00        0.00
   0.00000000  -0.00010005   0.00000000            0.00      -14.72        0.00
   0.00000000   0.00000000  -0.00006661            0.00        0.00       -9.80

     Energy error            =      1.4E-05 Ry
     Gradient error          =      2.2E-03 Ry/Bohr

     number of scf cycles    =   6
     number of bfgs steps    =   5

     energy             old  =    -333.1837809520 Ry
     energy             new  =    -333.1837946026 Ry

     CASE: energy            _new < energy            _old

     new trust radius        =       0.0105461662 bohr
     new conv_thr            =       0.0000000010 Ry


ATOMIC_POSITIONS (angstrom)
Pb               0.0000000000        0.0000000000        0.0000000000    0   0   0
Ti               1.9375000000        1.9375000000        1.8600000000    0   0   0
O                0.0000000000        1.9375000000        1.9264580382
O                1.9375000000        0.0000000000        1.9264580382
O                1.9375000000        1.9375000000       -0.0230276096


     Message from routine punch:
     Nothing written, as per user request (disk_io='none')
     NEW-OLD atomic charge density approx. for the potential

     total cpu time spent up to now is       33.1 secs

     Self-consistent Calculation

     iteration #  1     ecut=    30.00 Ry     beta= 0.70
     Davidson diagonalization with overlap
     ethr =  1.00E-06,  avg # of iterations =  4.7

     Threshold (ethr) on eigenvalues was too large:
     Diagonalizing with lowered threshold

     Davidson diagonalization with overlap
     ethr =  5.60E-08,  avg # of iterations =  4.5

     total cpu time spent up to now is       33.9 secs

     total energy              =    -333.18381664 Ry
     estimated scf accuracy    <       0.00002654 Ry

     iteration #  2     ecut=    30.00 Ry     beta= 0.70
     Davidson diagonalization with overlap
     ethr =  6.03E-08,  avg # of iterations =  2.7

     total cpu time spent up to now is       34.3 secs

     total energy              =    -333.18381951 Ry
     estimated scf accuracy    <       0.00000293 Ry

     iteration #  3     ecut=    30.00 Ry     beta= 0.70
     Davidson diagonalization with overlap
     ethr =  6.66E-09,  avg # of iterations =  4.7

     total cpu time spent up to now is       34.8 secs

     total energy              =    -333.18381988 Ry
     estimated scf accuracy    <       0.00000327 Ry

     iteration #  4     ecut=    30.00 Ry     beta= 0.70
     Davidson diagonalization with overlap
     ethr =  6.66E-09,  avg # of iterations =  4.2

     total cpu time spent up to now is       35.3 secs

     total energy              =    -333.18382061 Ry
     estimated scf accuracy    <       0.00000015 Ry

     iteration #  5     ecut=    30.00 Ry     beta= 0.70
     Davidson diagonalization with overlap
     ethr =  3.32E-10,  avg # of iterations =  4.7

     total cpu time spent up to now is       35.7 secs

     total energy              =    -333.18382064 Ry
     estimated scf accuracy    <       0.00000009 Ry

     iteration #  6     ecut=    30.00 Ry     beta= 0.70
     Davidson diagonalization with overlap
     ethr =  2.11E-10,  avg # of iterations =  4.5

     total cpu time spent up to now is       36.2 secs

     total energy              =    -333.18382065 Ry
     estimated scf accuracy    <          3.2E-09 Ry

     iteration #  7     ecut=    30.00 Ry     beta= 0.70
     Davidson diagonalization with overlap
     ethr =  7.37E-12,  avg # of iterations =  5.5

     total cpu time spent up to now is       36.6 secs

     total energy              =    -333.18382065 Ry
     estimated scf accuracy    <          2.2E-09 Ry

     iteration #  8     ecut=    30.00 Ry     beta= 0.70
     Davidson diagonalization with overlap
     ethr =  5.08E-12,  avg # of iterations =  3.0

     total cpu time spent up to now is       37.0 secs

     End of self-consistent calculation

          k = 0.1250 0.1250 0.1250 (  1090 PWs)   bands (ev):

   -44.6420 -21.2607 -21.2495 -21.2485  -6.3272  -5.2567  -5.2422  -3.9556
    -3.9540  -3.9408  -3.7731  -3.7712   4.6650   7.3105   7.3174   8.0924
     9.1268   9.1491   9.8934   9.9071   9.9993  10.1483

          k = 0.1250 0.1250 0.3750 (  1095 PWs)   bands (ev):

   -44.6408 -21.3187 -21.2473 -21.2464  -5.9102  -5.1210  -5.0889  -4.0168
    -3.9507  -3.9373  -3.8697  -3.7421   3.9253   6.8412   7.3231   7.8579
     8.4723   8.7339   9.4093   9.9478  10.1386  10.8925

          k = 0.1250 0.3750 0.3750 (  1087 PWs)   bands (ev):

   -44.6395 -21.3151 -21.3032 -21.2447  -5.6947  -5.0035  -4.9321  -3.9902
    -3.9462  -3.8924  -3.8025  -3.6493   3.5582   6.7762   6.8885   7.1959
     7.5056   8.6959   9.4524   9.5003  10.0590  10.7306

          k = 0.3750 0.3750 0.3750 (  1082 PWs)   bands (ev):

   -44.6383 -21.3126 -21.3008 -21.3006  -5.2995  -5.1311  -5.1200  -3.9017
    -3.8997  -3.6110  -3.5461  -3.5404   4.1773   5.9473   5.9589   6.7182
     7.0549   7.0627   7.9993  10.6826  10.6997  10.7680

          k = 0.3750-0.1250 0.1250 (  1095 PWs)   bands (ev):

   -44.6408 -21.3068 -21.2585 -21.2468  -5.9203  -5.1333  -5.0718  -4.0161
    -3.9496  -3.9377  -3.8715  -3.7407   3.9302   6.8563   7.3551   7.8596
     8.4589   8.7684   9.3816   9.9510  10.1050  10.8754

          k = 0.3750-0.3750 0.1250 (  1087 PWs)   bands (ev):

   -44.6395 -21.3037 -21.3028 -21.2563  -5.7139  -4.9945  -4.9234  -3.9884
    -3.9455  -3.8902  -3.8017  -3.6566   3.5626   6.8254   6.8580   7.1918
     7.4987   8.6880   9.4749   9.4988  10.0501  10.7500

     highest occupied level (ev):    10.8925

!    total energy              =    -333.18382065 Ry
     estimated scf accuracy    <          4.6E-10 Ry

     The total energy is the sum of the following terms:
     one-electron contribution =     -76.50429149 Ry
     hartree contribution      =      66.24511570 Ry
     xc contribution           =     -49.65019617 Ry
     ewald contribution        =    -273.27444870 Ry

     convergence has been achieved in   8 iterations

     Forces acting on atoms (cartesian axes, Ry/au):

     atom    1 type  2   force =     0.00000000    0.00000000   -0.00839839
     atom    2 type  3   force =     0.00000000    0.00000000    0.01086187
     atom    3 type  1   force =     0.00000000    0.00000000   -0.00250887
     atom    4 type  1   force =     0.00000000    0.00000000   -0.00250887
     atom    5 type  1   force =     0.00000000    0.00000000    0.00255424

     Total force =     0.004372     Total SCF correction =     0.000008


     Computing stress (Cartesian axis) and pressure

          total   stress  (Ry/bohr**3)                   (kbar)     P=      -13.42
  -0.00009988   0.00000000   0.00000000          -14.69        0.00        0.00
   0.00000000  -0.00009988   0.00000000            0.00      -14.69        0.00
   0.00000000   0.00000000  -0.00007396            0.00        0.00      -10.88

     Energy error            =      2.6E-05 Ry
     Gradient error          =      2.6E-03 Ry/Bohr

     number of scf cycles    =   7
     number of bfgs steps    =   6

     energy             old  =    -333.1837946026 Ry
     energy             new  =    -333.1838206537 Ry

     CASE: energy            _new < energy            _old

     new trust radius        =       0.0158192493 bohr
     new conv_thr            =       0.0000000010 Ry


ATOMIC_POSITIONS (angstrom)
Pb               0.0000000000        0.0000000000        0.0000000000    0   0   0
Ti               1.9375000000        1.9375000000        1.8600000000    0   0   0
O                0.0000000000        1.9375000000        1.9180868520
O                1.9375000000        0.0000000000        1.9180868520
O                1.9375000000        1.9375000000       -0.0311946529


     Message from routine punch:
     Nothing written, as per user request (disk_io='none')
     NEW-OLD atomic charge density approx. for the potential

     total cpu time spent up to now is       38.5 secs

     Self-consistent Calculation

     iteration #  1     ecut=    30.00 Ry     beta= 0.70
     Davidson diagonalization with overlap
     ethr =  1.00E-06,  avg # of iterations =  5.3

     total cpu time spent up to now is       39.0 secs

     total energy              =    -333.18384754 Ry
     estimated scf accuracy    <       0.00006013 Ry

     iteration #  2     ecut=    30.00 Ry     beta= 0.70
     Davidson diagonalization with overlap
     ethr =  1.37E-07,  avg # of iterations =  2.7

     total cpu time spent up to now is       39.3 secs

     total energy              =    -333.18385672 Ry
     estimated scf accuracy    <       0.00000400 Ry

     iteration #  3     ecut=    30.00 Ry     beta= 0.70
     Davidson diagonalization with overlap
     ethr =  9.08E-09,  avg # of iterations =  5.7

     total cpu time spent up to now is       39.8 secs

     total energy              =    -333.18385746 Ry
     estimated scf accuracy    <       0.00000293 Ry

     iteration #  4     ecut=    30.00 Ry     beta= 0.70
     Davidson diagonalization with overlap
     ethr =  6.66E-09,  avg # of iterations =  4.8

     total cpu time spent up to now is       40.3 secs

     total energy              =    -333.18385820 Ry
     estimated scf accuracy    <       0.00000076 Ry

     iteration #  5     ecut=    30.00 Ry     beta= 0.70
     Davidson diagonalization with overlap
     ethr =  1.72E-09,  avg # of iterations =  3.7

     total cpu time spent up to now is       40.8 secs

     total energy              =    -333.18385833 Ry
     estimated scf accuracy    <       0.00000003 Ry

     iteration #  6     ecut=    30.00 Ry     beta= 0.70
     Davidson diagonalization with overlap
     ethr =  7.87E-11,  avg # of iterations =  5.3

     total cpu time spent up to now is       41.3 secs

     total energy              =    -333.18385835 Ry
     estimated scf accuracy    <       0.00000005 Ry

     iteration #  7     ecut=    30.00 Ry     beta= 0.70
     Davidson diagonalization with overlap
     ethr =  7.87E-11,  avg # of iterations =  3.3

     total cpu time spent up to now is       41.7 secs

     total energy              =    -333.18385835 Ry
     estimated scf accuracy    <          9.5E-09 Ry

     iteration #  8     ecut=    30.00 Ry     beta= 0.70
     Davidson diagonalization with overlap
     ethr =  2.15E-11,  avg # of iterations =  4.8

     total cpu time spent up to now is       42.1 secs

     total energy              =    -333.18385835 Ry
     estimated scf accuracy    <          2.6E-09 Ry

     iteration #  9     ecut=    30.00 Ry     beta= 0.70
     Davidson diagonalization with overlap
     ethr =  5.89E-12,  avg # of iterations =  1.5

     total cpu time spent up to now is       42.5 secs

     total energy              =    -333.18385835 Ry
     estimated scf accuracy    <          1.3E-09 Ry

     iteration # 10     ecut=    30.00 Ry     beta= 0.70
     Davidson diagonalization with overlap
     ethr =  2.86E-12,  avg # of iterations =  3.7

     total cpu time spent up to now is       42.9 secs

     End of self-consistent calculation

          k = 0.1250 0.1250 0.1250 (  1090 PWs)   bands (ev):

   -44.6471 -21.2625 -21.2547 -21.2538  -6.3278  -5.2553  -5.2457  -3.9545
    -3.9532  -3.9399  -3.7722  -3.7704   4.6659   7.3114   7.3163   8.0933
     9.1332   9.1505   9.8971   9.9257   9.9942  10.1401

          k = 0.1250 0.1250 0.3750 (  1095 PWs)   bands (ev):

   -44.6458 -21.3204 -21.2526 -21.2517  -5.9130  -5.1249  -5.0856  -4.0156
    -3.9495  -3.9365  -3.8689  -3.7411   3.9284   6.8424   7.3302   7.8574
     8.4681   8.7398   9.4067   9.9509  10.1343  10.8897

          k = 0.1250 0.3750 0.3750 (  1087 PWs)   bands (ev):

   -44.6446 -21.3168 -21.3085 -21.2500  -5.6975  -5.0024  -4.9322  -3.9891
    -3.9452  -3.8913  -3.8015  -3.6489   3.5596   6.7857   6.8788   7.1948
     7.5046   8.6930   9.4545   9.4994  10.0594  10.7335

          k = 0.3750 0.3750 0.3750 (  1082 PWs)   bands (ev):

   -44.6433 -21.3143 -21.3061 -21.3059  -5.2993  -5.1296  -5.1221  -3.9006
    -3.8989  -3.6100  -3.5447  -3.5402   4.1772   5.9496   5.9571   6.7195
     7.0502   7.0551   8.0006  10.6865  10.6988  10.7687

          k = 0.3750-0.1250 0.1250 (  1095 PWs)   bands (ev):

   -44.6459 -21.3121 -21.2602 -21.2521  -5.9199  -5.1334  -5.0741  -4.0152
    -3.9487  -3.9367  -3.8700  -3.7399   3.9309   6.8529   7.3534   7.8596
     8.4597   8.7649   9.3863   9.9528  10.1104  10.8769

          k = 0.3750-0.3750 0.1250 (  1087 PWs)   bands (ev):

   -44.6446 -21.3090 -21.3081 -21.2581  -5.7105  -4.9968  -4.9262  -3.9877
    -3.9444  -3.8892  -3.8006  -3.6549   3.5617   6.8234   6.8545   7.1924
     7.4993   8.6878   9.4728   9.4983  10.0524  10.7472

     highest occupied level (ev):    10.8897

!    total energy              =    -333.18385835 Ry
     estimated scf accuracy    <          4.3E-11 Ry

     The total energy is the sum of the following terms:
     one-electron contribution =     -76.49941005 Ry
     hartree contribution      =      66.24141363 Ry
     xc contribution           =     -49.64947995 Ry
     ewald contribution        =    -273.27638199 Ry

     convergence has been achieved in  10 iterations

     Forces acting on atoms (cartesian axes, Ry/au):

     atom    1 type  2   force =     0.00000000    0.00000000   -0.00790498
     atom    2 type  3   force =     0.00000000    0.00000000    0.01020189
     atom    3 type  1   force =     0.00000000    0.00000000   -0.00284272
     atom    4 type  1   force =     0.00000000    0.00000000   -0.00284272
     atom    5 type  1   force =     0.00000000    0.00000000    0.00338854

     Total force =     0.005258     Total SCF correction =     0.000001


     Computing stress (Cartesian axis) and pressure

          total   stress  (Ry/bohr**3)                   (kbar)     P=      -13.79
  -0.00009919   0.00000000   0.00000000          -14.59        0.00        0.00
   0.00000000  -0.00009919   0.00000000            0.00      -14.59        0.00
   0.00000000   0.00000000  -0.00008277            0.00        0.00      -12.18

     Energy error            =      3.8E-05 Ry
     Gradient error          =      3.4E-03 Ry/Bohr

     number of scf cycles    =   8
     number of bfgs steps    =   7

     energy             old  =    -333.1838206537 Ry
     energy             new  =    -333.1838583530 Ry

     CASE: energy            _new < energy            _old

     new trust radius        =       0.0237288739 bohr
     new conv_thr            =       0.0000000010 Ry


ATOMIC_POSITIONS (angstrom)
Pb               0.0000000000        0.0000000000        0.0000000000    0   0   0
Ti               1.9375000000        1.9375000000        1.8600000000    0   0   0
O                0.0000000000        1.9375000000        1.9055300726
O                1.9375000000        0.0000000000        1.9055300726
O                1.9375000000        1.9375000000       -0.0428708820


     Message from routine punch:
     Nothing written, as per user request (disk_io='none')
     NEW-OLD atomic charge density approx. for the potential

     total cpu time spent up to now is       44.4 secs

     Self-consistent Calculation

     iteration #  1     ecut=    30.00 Ry     beta= 0.70
     Davidson diagonalization with overlap
     ethr =  1.00E-06,  avg # of iterations =  6.8

     total cpu time spent up to now is       46.0 secs

     total energy              =    -333.18390064 Ry
     estimated scf accuracy    <       0.00013109 Ry

     iteration #  2     ecut=    30.00 Ry     beta= 0.70
     Davidson diagonalization with overlap
     ethr =  2.98E-07,  avg # of iterations =  2.3

     total cpu time spent up to now is       47.0 secs

     total energy              =    -333.18391761 Ry
     estimated scf accuracy    <       0.00000783 Ry

     iteration #  3     ecut=    30.00 Ry     beta= 0.70
     Davidson diagonalization with overlap
     ethr =  1.78E-08,  avg # of iterations =  4.3

     total cpu time spent up to now is       47.6 secs

     total energy              =    -333.18391902 Ry
     estimated scf accuracy    <       0.00000405 Ry

     iteration #  4     ecut=    30.00 Ry     beta= 0.70
     Davidson diagonalization with overlap
     ethr =  9.20E-09,  avg # of iterations =  4.7

     total cpu time spent up to now is       48.1 secs

     total energy              =    -333.18391999 Ry
     estimated scf accuracy    <       0.00000137 Ry

     iteration #  5     ecut=    30.00 Ry     beta= 0.70
     Davidson diagonalization with overlap
     ethr =  3.11E-09,  avg # of iterations =  4.0

     total cpu time spent up to now is       48.5 secs

     total energy              =    -333.18392027 Ry
     estimated scf accuracy    <       0.00000005 Ry

     iteration #  6     ecut=    30.00 Ry     beta= 0.70
     Davidson diagonalization with overlap
     ethr =  1.12E-10,  avg # of iterations =  6.0

     total cpu time spent up to now is       49.0 secs

     total energy              =    -333.18392029 Ry
     estimated scf accuracy    <       0.00000009 Ry

     iteration #  7     ecut=    30.00 Ry     beta= 0.70
     Davidson diagonalization with overlap
     ethr =  1.12E-10,  avg # of iterations =  4.0

     total cpu time spent up to now is       49.4 secs

     total energy              =    -333.18392030 Ry
     estimated scf accuracy    <          6.5E-09 Ry

     iteration #  8     ecut=    30.00 Ry     beta= 0.70
     Davidson diagonalization with overlap
     ethr =  1.48E-11,  avg # of iterations =  5.0

     total cpu time spent up to now is       49.9 secs

     total energy              =    -333.18392030 Ry
     estimated scf accuracy    <          1.2E-09 Ry

     iteration #  9     ecut=    30.00 Ry     beta= 0.70
     Davidson diagonalization with overlap
     ethr =  2.79E-12,  avg # of iterations =  3.0

     total cpu time spent up to now is       50.3 secs

     End of self-consistent calculation

          k = 0.1250 0.1250 0.1250 (  1090 PWs)   bands (ev):

   -44.6531 -21.2648 -21.2611 -21.2602  -6.3290  -5.2536  -5.2506  -3.9529
    -3.9520  -3.9384  -3.7709  -3.7688   4.6671   7.3123   7.3149   8.0947
     9.1406   9.1517   9.9015   9.9497   9.9872  10.1282

          k = 0.1250 0.1250 0.3750 (  1095 PWs)   bands (ev):

   -44.6519 -21.3225 -21.2590 -21.2581  -5.9171  -5.1305  -5.0814  -4.0137
    -3.9478  -3.9351  -3.8673  -3.7396   3.9323   6.8440   7.3387   7.8564
     8.4627   8.7468   9.4029   9.9545  10.1284  10.8863

          k = 0.1250 0.3750 0.3750 (  1087 PWs)   bands (ev):

   -44.6506 -21.3190 -21.3149 -21.2564  -5.7014  -5.0018  -4.9322  -3.9874
    -3.9436  -3.8895  -3.7998  -3.6479   3.5615   6.7986   6.8648   7.1931
     7.5032   8.6890   9.4553   9.4989  10.0602  10.7369

          k = 0.3750 0.3750 0.3750 (  1082 PWs)   bands (ev):

   -44.6494 -21.3164 -21.3125 -21.3123  -5.2995  -5.1277  -5.1254  -3.8988
    -3.8977  -3.6085  -3.5427  -3.5393   4.1764   5.9524   5.9544   6.7207
     7.0443   7.0456   8.0031  10.6909  10.6966  10.7697

          k = 0.3750-0.1250 0.1250 (  1095 PWs)   bands (ev):

   -44.6519 -21.3186 -21.2625 -21.2585  -5.9198  -5.1340  -5.0776  -4.0139
    -3.9472  -3.9352  -3.8676  -3.7384   3.9319   6.8483   7.3509   7.8594
     8.4603   8.7602   9.3917   9.9545  10.1166  10.8789

          k = 0.3750-0.3750 0.1250 (  1087 PWs)   bands (ev):

   -44.6506 -21.3154 -21.3145 -21.2603  -5.7061  -5.0004  -4.9306  -3.9865
    -3.9426  -3.8872  -3.7986  -3.6524   3.5601   6.8205   6.8498   7.1928
     7.5000   8.6876   9.4699   9.4974  10.0556  10.7431

     highest occupied level (ev):    10.8863

!    total energy              =    -333.18392030 Ry
     estimated scf accuracy    <          2.2E-10 Ry

     The total energy is the sum of the following terms:
     one-electron contribution =     -76.50284291 Ry
     hartree contribution      =      66.24156251 Ry
     xc contribution           =     -49.64882578 Ry
     ewald contribution        =    -273.27381413 Ry

     convergence has been achieved in   9 iterations

     Forces acting on atoms (cartesian axes, Ry/au):

     atom    1 type  2   force =     0.00000000    0.00000000   -0.00715836
     atom    2 type  3   force =     0.00000000    0.00000000    0.00951231
     atom    3 type  1   force =     0.00000000    0.00000000   -0.00325401
     atom    4 type  1   force =     0.00000000    0.00000000   -0.00325401
     atom    5 type  1   force =     0.00000000    0.00000000    0.00415408

     Total force =     0.006199     Total SCF correction =     0.000003


     Computing stress (Cartesian axis) and pressure

          total   stress  (Ry/bohr**3)                   (kbar)     P=      -14.14
  -0.00009797   0.00000000   0.00000000          -14.41        0.00        0.00
   0.00000000  -0.00009797   0.00000000            0.00      -14.41        0.00
   0.00000000   0.00000000  -0.00009237            0.00        0.00      -13.59

     Energy error            =      6.2E-05 Ry
     Gradient error          =      4.2E-03 Ry/Bohr

     number of scf cycles    =   9
     number of bfgs steps    =   8

     energy             old  =    -333.1838583530 Ry
     energy             new  =    -333.1839203022 Ry

     CASE: energy            _new < energy            _old


     WARNING: bfgs curvature condition failed, Theta= 0.487
     new trust radius        =       0.0355933109 bohr
     new conv_thr            =       0.0000000010 Ry


ATOMIC_POSITIONS (angstrom)
Pb               0.0000000000        0.0000000000        0.0000000000    0   0   0
Ti               1.9375000000        1.9375000000        1.8600000000    0   0   0
O                0.0000000000        1.9375000000        1.8866949037
O                1.9375000000        0.0000000000        1.8866949037
O                1.9375000000        1.9375000000       -0.0615519317


     Message from routine punch:
     Nothing written, as per user request (disk_io='none')
     NEW-OLD atomic charge density approx. for the potential

     total cpu time spent up to now is       51.9 secs

     Self-consistent Calculation

     iteration #  1     ecut=    30.00 Ry     beta= 0.70
     Davidson diagonalization with overlap
     ethr =  1.00E-06,  avg # of iterations =  8.0

     total cpu time spent up to now is       52.5 secs

     total energy              =    -333.18397007 Ry
     estimated scf accuracy    <       0.00031297 Ry

     iteration #  2     ecut=    30.00 Ry     beta= 0.70
     Davidson diagonalization with overlap
     ethr =  7.11E-07,  avg # of iterations =  2.2

     total cpu time spent up to now is       52.9 secs

     total energy              =    -333.18400795 Ry
     estimated scf accuracy    <       0.00001620 Ry

     iteration #  3     ecut=    30.00 Ry     beta= 0.70
     Davidson diagonalization with overlap
     ethr =  3.68E-08,  avg # of iterations =  4.2

     total cpu time spent up to now is       53.3 secs

     total energy              =    -333.18401013 Ry
     estimated scf accuracy    <       0.00000883 Ry

     iteration #  4     ecut=    30.00 Ry     beta= 0.70
     Davidson diagonalization with overlap
     ethr =  2.01E-08,  avg # of iterations =  4.7

     total cpu time spent up to now is       53.7 secs

     total energy              =    -333.18401224 Ry
     estimated scf accuracy    <       0.00000267 Ry

     iteration #  5     ecut=    30.00 Ry     beta= 0.70
     Davidson diagonalization with overlap
     ethr =  6.08E-09,  avg # of iterations =  4.2

     total cpu time spent up to now is       54.1 secs

     total energy              =    -333.18401281 Ry
     estimated scf accuracy    <       0.00000011 Ry

     iteration #  6     ecut=    30.00 Ry     beta= 0.70
     Davidson diagonalization with overlap
     ethr =  2.39E-10,  avg # of iterations =  5.2

     total cpu time spent up to now is       54.6 secs

     total energy              =    -333.18401283 Ry
     estimated scf accuracy    <       0.00000010 Ry

     iteration #  7     ecut=    30.00 Ry     beta= 0.70
     Davidson diagonalization with overlap
     ethr =  2.34E-10,  avg # of iterations =  3.8

     total cpu time spent up to now is       54.9 secs

     total energy              =    -333.18401284 Ry
     estimated scf accuracy    <       0.00000001 Ry

     iteration #  8     ecut=    30.00 Ry     beta= 0.70
     Davidson diagonalization with overlap
     ethr =  2.50E-11,  avg # of iterations =  5.3

     total cpu time spent up to now is       55.4 secs

     total energy              =    -333.18401285 Ry
     estimated scf accuracy    <       0.00000001 Ry

     iteration #  9     ecut=    30.00 Ry     beta= 0.70
     Davidson diagonalization with overlap
     ethr =  2.50E-11,  avg # of iterations =  1.3

     total cpu time spent up to now is       55.8 secs

     total energy              =    -333.18401285 Ry
     estimated scf accuracy    <          5.7E-09 Ry

     iteration # 10     ecut=    30.00 Ry     beta= 0.70
     Davidson diagonalization with overlap
     ethr =  1.29E-11,  avg # of iterations =  3.8

     total cpu time spent up to now is       56.3 secs

     End of self-consistent calculation

          k = 0.1250 0.1250 0.1250 (  1090 PWs)   bands (ev):

   -44.6599 -21.2689 -21.2674 -21.2669  -6.3314  -5.2580  -5.2515  -3.9503
    -3.9497  -3.9359  -3.7689  -3.7654   4.6685   7.3122   7.3131   8.0968
     9.1483   9.1519   9.9054   9.9753   9.9784  10.1149

          k = 0.1250 0.1250 0.3750 (  1095 PWs)   bands (ev):

   -44.6587 -21.3251 -21.2663 -21.2653  -5.9234  -5.1390  -5.0760  -4.0105
    -3.9450  -3.9326  -3.8638  -3.7372   3.9370   6.8463   7.3470   7.8536
     8.4566   8.7545   9.3970   9.9577  10.1200  10.8828

          k = 0.1250 0.3750 0.3750 (  1087 PWs)   bands (ev):

   -44.6574 -21.3225 -21.3213 -21.2636  -5.7074  -5.0031  -4.9321  -3.9845
    -3.9410  -3.8866  -3.7969  -3.6452   3.5643   6.8142   6.8459   7.1905
     7.5009   8.6834   9.4528   9.4999  10.0618  10.7402

          k = 0.3750 0.3750 0.3750 (  1082 PWs)   bands (ev):

   -44.6561 -21.3199 -21.3196 -21.3190  -5.3009  -5.1308  -5.1254  -3.8959
    -3.8953  -3.6063  -3.5394  -3.5371   4.1745   5.9502   5.9558   6.7212
     7.0345   7.0376   8.0086  10.6922  10.6954  10.7706

          k = 0.3750-0.1250 0.1250 (  1095 PWs)   bands (ev):

   -44.6587 -21.3258 -21.2660 -21.2649  -5.9205  -5.1359  -5.0830  -4.0115
    -3.9447  -3.9326  -3.8629  -3.7355   3.9331   6.8421   7.3470   7.8589
     8.4597   8.7546   9.3970   9.9555  10.1221  10.8821

          k = 0.3750-0.3750 0.1250 (  1087 PWs)   bands (ev):

   -44.6574 -21.3227 -21.3218 -21.2630  -5.7009  -5.0066  -4.9382  -3.9844
    -3.9393  -3.8832  -3.7946  -3.6489   3.5572   6.8161   6.8439   7.1931
     7.5014   8.6877   9.4661   9.4957  10.0603  10.7366

     highest occupied level (ev):    10.8828

!    total energy              =    -333.18401285 Ry
     estimated scf accuracy    <          1.3E-10 Ry

     The total energy is the sum of the following terms:
     one-electron contribution =     -76.52350438 Ry
     hartree contribution      =      66.25008968 Ry
     xc contribution           =     -49.64849793 Ry
     ewald contribution        =    -273.26210021 Ry

     convergence has been achieved in  10 iterations

     Forces acting on atoms (cartesian axes, Ry/au):

     atom    1 type  2   force =     0.00000000    0.00000000   -0.00610213
     atom    2 type  3   force =     0.00000000    0.00000000    0.00885614
     atom    3 type  1   force =     0.00000000    0.00000000   -0.00412029
     atom    4 type  1   force =     0.00000000    0.00000000   -0.00412029
     atom    5 type  1   force =     0.00000000    0.00000000    0.00548657

     Total force =     0.008004     Total SCF correction =     0.000004


     Computing stress (Cartesian axis) and pressure

          total   stress  (Ry/bohr**3)                   (kbar)     P=      -14.37
  -0.00009602   0.00000000   0.00000000          -14.12        0.00        0.00
   0.00000000  -0.00009602   0.00000000            0.00      -14.12        0.00
   0.00000000   0.00000000  -0.00010108            0.00        0.00      -14.87

     Energy error            =      9.3E-05 Ry
     Gradient error          =      5.5E-03 Ry/Bohr

     number of scf cycles    =  10
     number of bfgs steps    =   9

     energy             old  =    -333.1839203022 Ry
     energy             new  =    -333.1840128500 Ry

     CASE: energy            _new < energy            _old


     WARNING: bfgs curvature condition failed, Theta= 0.580
     uphill step: resetting bfgs history

     new trust radius        =       0.0054865715 bohr
     new conv_thr            =       0.0000000010 Ry


ATOMIC_POSITIONS (angstrom)
Pb               0.0000000000        0.0000000000        0.0000000000    0   0   0
Ti               1.9375000000        1.9375000000        1.8600000000    0   0   0
O                0.0000000000        1.9375000000        1.8845145391
O                1.9375000000        0.0000000000        1.8845145391
O                1.9375000000        1.9375000000       -0.0586485631


     Message from routine punch:
     Nothing written, as per user request (disk_io='none')
     NEW-OLD atomic charge density approx. for the potential

     total cpu time spent up to now is       57.8 secs

     Self-consistent Calculation

     iteration #  1     ecut=    30.00 Ry     beta= 0.70
     Davidson diagonalization with overlap
     ethr =  1.00E-06,  avg # of iterations =  3.0

     Threshold (ethr) on eigenvalues was too large:
     Diagonalizing with lowered threshold

     Davidson diagonalization with overlap
     ethr =  1.44E-08,  avg # of iterations =  4.5

     total cpu time spent up to now is       58.6 secs

     total energy              =    -333.18406663 Ry
     estimated scf accuracy    <       0.00000880 Ry

     iteration #  2     ecut=    30.00 Ry     beta= 0.70
     Davidson diagonalization with overlap
     ethr =  2.00E-08,  avg # of iterations =  2.2

     total cpu time spent up to now is       59.0 secs

     total energy              =    -333.18406885 Ry
     estimated scf accuracy    <       0.00000094 Ry

     iteration #  3     ecut=    30.00 Ry     beta= 0.70
     Davidson diagonalization with overlap
     ethr =  2.13E-09,  avg # of iterations =  2.0

     total cpu time spent up to now is       59.3 secs

     total energy              =    -333.18406903 Ry
     estimated scf accuracy    <       0.00000002 Ry

     iteration #  4     ecut=    30.00 Ry     beta= 0.70
     Davidson diagonalization with overlap
     ethr =  4.29E-11,  avg # of iterations =  5.8

     total cpu time spent up to now is       59.8 secs

     total energy              =    -333.18406905 Ry
     estimated scf accuracy    <          9.2E-09 Ry

     iteration #  5     ecut=    30.00 Ry     beta= 0.70
     Davidson diagonalization with overlap
     ethr =  2.09E-11,  avg # of iterations =  4.2

     total cpu time spent up to now is       60.3 secs

     total energy              =    -333.18406905 Ry
     estimated scf accuracy    <          2.0E-09 Ry

     iteration #  6     ecut=    30.00 Ry     beta= 0.70
     Davidson diagonalization with overlap
     ethr =  4.57E-12,  avg # of iterations =  4.5

     total cpu time spent up to now is       60.7 secs

     End of self-consistent calculation

          k = 0.1250 0.1250 0.1250 (  1090 PWs)   bands (ev):

   -44.6594 -21.2685 -21.2669 -21.2667  -6.3316  -5.2584  -5.2519  -3.9501
    -3.9496  -3.9357  -3.7688  -3.7650   4.6687   7.3119   7.3137   8.0964
     9.1478   9.1514   9.9052   9.9747   9.9780  10.1144

          k = 0.1250 0.1250 0.3750 (  1095 PWs)   bands (ev):

   -44.6582 -21.3250 -21.2658 -21.2648  -5.9237  -5.1395  -5.0764  -4.0102
    -3.9448  -3.9324  -3.8634  -3.7370   3.9372   6.8462   7.3467   7.8539
     8.4561   8.7537   9.3965   9.9576  10.1196  10.8826

          k = 0.1250 0.3750 0.3750 (  1087 PWs)   bands (ev):

   -44.6569 -21.3221 -21.3211 -21.2632  -5.7077  -5.0035  -4.9324  -3.9843
    -3.9409  -3.8864  -3.7966  -3.6449   3.5643   6.8141   6.8458   7.1901
     7.5009   8.6832   9.4534   9.4983  10.0618  10.7397

          k = 0.3750 0.3750 0.3750 (  1082 PWs)   bands (ev):

   -44.6556 -21.3195 -21.3191 -21.3188  -5.3012  -5.1310  -5.1258  -3.8957
    -3.8952  -3.6061  -3.5391  -3.5368   4.1739   5.9499   5.9554   6.7212
     7.0341   7.0372   8.0091  10.6918  10.6949  10.7702

          k = 0.3750-0.1250 0.1250 (  1095 PWs)   bands (ev):

   -44.6582 -21.3253 -21.2657 -21.2646  -5.9208  -5.1364  -5.0833  -4.0114
    -3.9445  -3.9323  -3.8627  -3.7352   3.9329   6.8419   7.3467   7.8589
     8.4598   8.7544   9.3962   9.9549  10.1217  10.8817

          k = 0.3750-0.3750 0.1250 (  1087 PWs)   bands (ev):

   -44.6569 -21.3222 -21.3213 -21.2629  -5.7013  -5.0071  -4.9387  -3.9842
    -3.9390  -3.8827  -3.7941  -3.6487   3.5568   6.8161   6.8435   7.1923
     7.5003   8.6877   9.4659   9.4959  10.0603  10.7363

     highest occupied level (ev):    10.8826

!    total energy              =    -333.18406905 Ry
     estimated scf accuracy    <          3.1E-10 Ry

     The total energy is the sum of the following terms:
     one-electron contribution =     -76.53824194 Ry
     hartree contribution      =      66.25757123 Ry
     xc contribution           =     -49.64882306 Ry
     ewald contribution        =    -273.25457528 Ry

     convergence has been achieved in   6 iterations

     Forces acting on atoms (cartesian axes, Ry/au):

     atom    1 type  2   force =     0.00000000    0.00000000   -0.00580169
     atom    2 type  3   force =     0.00000000    0.00000000    0.00896012
     atom    3 type  1   force =     0.00000000    0.00000000   -0.00326177
     atom    4 type  1   force =     0.00000000    0.00000000   -0.00326177
     atom    5 type  1   force =     0.00000000    0.00000000    0.00336510

     Total force =     0.005710     Total SCF correction =     0.000033


     Computing stress (Cartesian axis) and pressure

          total   stress  (Ry/bohr**3)                   (kbar)     P=      -14.20
  -0.00009534   0.00000000   0.00000000          -14.03        0.00        0.00
   0.00000000  -0.00009534   0.00000000            0.00      -14.03        0.00
   0.00000000   0.00000000  -0.00009897            0.00        0.00      -14.56

     Energy error            =      5.6E-05 Ry
     Gradient error          =      3.4E-03 Ry/Bohr

     number of scf cycles    =  11
     number of bfgs steps    =  10

     energy             old  =    -333.1840128500 Ry
     energy             new  =    -333.1840690476 Ry

     CASE: energy            _new < energy            _old

     new trust radius        =       0.0060352286 bohr
     new conv_thr            =       0.0000000010 Ry


ATOMIC_POSITIONS (angstrom)
Pb               0.0000000000        0.0000000000        0.0000000000    0   0   0
Ti               1.9375000000        1.9375000000        1.8600000000    0   0   0
O                0.0000000000        1.9375000000        1.8814484149
O                1.9375000000        0.0000000000        1.8814484149
O                1.9375000000        1.9375000000       -0.0554548577


     Message from routine punch:
[...]

     iteration #  2     ecut=    30.00 Ry     beta= 0.70
     Davidson diagonalization with overlap
     ethr =  4.90E-09,  avg # of iterations =  2.3

     total cpu time spent up to now is      168.9 secs

     total energy              =    -333.18582701 Ry
     estimated scf accuracy    <       0.00000018 Ry

     iteration #  3     ecut=    30.00 Ry     beta= 0.70
     Davidson diagonalization with overlap
     ethr =  4.04E-10,  avg # of iterations =  3.5

     total cpu time spent up to now is      169.3 secs

     total energy              =    -333.18582705 Ry
     estimated scf accuracy    <       0.00000006 Ry

     iteration #  4     ecut=    30.00 Ry     beta= 0.70
     Davidson diagonalization with overlap
     ethr =  1.36E-10,  avg # of iterations =  4.5

     total cpu time spent up to now is      169.7 secs

     total energy              =    -333.18582706 Ry
     estimated scf accuracy    <       0.00000002 Ry

     iteration #  5     ecut=    30.00 Ry     beta= 0.70
     Davidson diagonalization with overlap
     ethr =  5.30E-11,  avg # of iterations =  3.8

     total cpu time spent up to now is      170.1 secs

     total energy              =    -333.18582707 Ry
     estimated scf accuracy    <          1.2E-09 Ry

     iteration #  6     ecut=    30.00 Ry     beta= 0.70
     Davidson diagonalization with overlap
     ethr =  2.62E-12,  avg # of iterations =  4.7

     total cpu time spent up to now is      170.5 secs

     End of self-consistent calculation

          k = 0.1250 0.1250 0.1250 (  1090 PWs)   bands (ev):

   -44.6324 -21.2744 -21.2402 -21.2393  -6.3904  -5.3242  -5.2566  -3.9044
    -3.9036  -3.8840  -3.7327  -3.6701   4.6794   7.2351   7.3113   8.0770
     9.0581   9.0917   9.6957   9.8034   9.9675  10.2364

          k = 0.1250 0.1250 0.3750 (  1095 PWs)   bands (ev):

   -44.6311 -21.3325 -21.2380 -21.2371  -5.9982  -5.2194  -5.0709  -3.9523
    -3.8929  -3.8818  -3.7663  -3.6982   3.9439   6.8420   7.1808   7.7597
     8.5283   8.6783   9.3615   9.8696  10.0649  10.9369

          k = 0.1250 0.3750 0.3750 (  1087 PWs)   bands (ev):

   -44.6298 -21.3289 -21.2935 -21.2355  -5.7700  -5.0911  -4.9605  -3.9327
    -3.8899  -3.8339  -3.7337  -3.5583   3.5942   6.6277   6.9437   7.1589
     7.4574   8.6555   9.4080   9.4443  10.1178  10.6798

          k = 0.3750 0.3750 0.3750 (  1082 PWs)   bands (ev):

   -44.6286 -21.3263 -21.2911 -21.2910  -5.3650  -5.2106  -5.1404  -3.8453
    -3.8423  -3.5763  -3.4826  -3.4620   4.1118   5.9139   5.9444   6.6491
     7.0953   7.1097   8.1529  10.6221  10.6269  10.7138

          k = 0.3750-0.1250 0.1250 (  1095 PWs)   bands (ev):

   -44.6311 -21.2973 -21.2720 -21.2376  -5.9759  -5.1977  -5.1523  -3.9628
    -3.8954  -3.8790  -3.7700  -3.6619   3.9377   6.8256   7.3194   7.8331
     8.3892   8.7842   9.3202   9.8761   9.9968  10.9064

          k = 0.3750-0.3750 0.1250 (  1087 PWs)   bands (ev):

   -44.6299 -21.2943 -21.2932 -21.2697  -5.7228  -5.1061  -5.0568  -3.9331
    -3.8730  -3.7856  -3.6910  -3.6084   3.5060   6.7746   6.8422   7.1890
     7.5363   8.7078   9.4726   9.4777  10.0962  10.6620

     highest occupied level (ev):    10.9369

!    total energy              =    -333.18582707 Ry
     estimated scf accuracy    <          4.9E-10 Ry

     The total energy is the sum of the following terms:
     one-electron contribution =     -77.46041822 Ry
     hartree contribution      =      66.72828653 Ry
     xc contribution           =     -49.67297070 Ry
     ewald contribution        =    -272.78072468 Ry

     convergence has been achieved in   6 iterations

     Forces acting on atoms (cartesian axes, Ry/au):

     atom    1 type  2   force =     0.00000000    0.00000000    0.00245958
     atom    2 type  3   force =     0.00000000    0.00000000    0.00036245
     atom    3 type  1   force =     0.00000000    0.00000000   -0.00121499
     atom    4 type  1   force =     0.00000000    0.00000000   -0.00121499
     atom    5 type  1   force =     0.00000000    0.00000000   -0.00039205

     Total force =     0.001762     Total SCF correction =     0.000017


     Computing stress (Cartesian axis) and pressure

          total   stress  (Ry/bohr**3)                   (kbar)     P=       -2.07
  -0.00006338   0.00000000   0.00000000           -9.32        0.00        0.00
   0.00000000  -0.00006338   0.00000000            0.00       -9.32        0.00
   0.00000000   0.00000000   0.00008448            0.00        0.00       12.43

     Energy error            =      8.4E-06 Ry
     Gradient error          =      1.2E-03 Ry/Bohr

     number of scf cycles    =  32
     number of bfgs steps    =  30

     energy             old  =    -333.1858186211 Ry
     energy             new  =    -333.1858270654 Ry

     CASE: energy            _new < energy            _old

     new trust radius        =       0.0050416562 bohr
     new conv_thr            =       0.0000000010 Ry


ATOMIC_POSITIONS (angstrom)
Pb               0.0000000000        0.0000000000        0.0000000000    0   0   0
Ti               1.9375000000        1.9375000000        1.8600000000    0   0   0
O                0.0000000000        1.9375000000        1.7104936648
O                1.9375000000        0.0000000000        1.7104936648
O                1.9375000000        1.9375000000       -0.1865843347


     Message from routine punch:
     Nothing written, as per user request (disk_io='none')
     NEW-OLD atomic charge density approx. for the potential

     total cpu time spent up to now is      172.0 secs

     Self-consistent Calculation

     iteration #  1     ecut=    30.00 Ry     beta= 0.70
     Davidson diagonalization with overlap
     ethr =  1.00E-06,  avg # of iterations =  3.0

     Threshold (ethr) on eigenvalues was too large:
     Diagonalizing with lowered threshold

     Davidson diagonalization with overlap
     ethr =  6.62E-09,  avg # of iterations =  6.7

     total cpu time spent up to now is      172.8 secs

     total energy              =    -333.18583971 Ry
     estimated scf accuracy    <       0.00000483 Ry

     iteration #  2     ecut=    30.00 Ry     beta= 0.70
     Davidson diagonalization with overlap
     ethr =  1.10E-08,  avg # of iterations =  2.2

     total cpu time spent up to now is      173.2 secs

     total energy              =    -333.18584038 Ry
     estimated scf accuracy    <       0.00000031 Ry

     iteration #  3     ecut=    30.00 Ry     beta= 0.70
     Davidson diagonalization with overlap
     ethr =  7.12E-10,  avg # of iterations =  3.5

     total cpu time spent up to now is      173.6 secs

     total energy              =    -333.18584044 Ry
     estimated scf accuracy    <       0.00000009 Ry

     iteration #  4     ecut=    30.00 Ry     beta= 0.70
     Davidson diagonalization with overlap
     ethr =  1.94E-10,  avg # of iterations =  4.7

     total cpu time spent up to now is      174.0 secs

     total energy              =    -333.18584046 Ry
     estimated scf accuracy    <       0.00000004 Ry

     iteration #  5     ecut=    30.00 Ry     beta= 0.70
     Davidson diagonalization with overlap
     ethr =  9.96E-11,  avg # of iterations =  3.8

     total cpu time spent up to now is      174.4 secs

     total energy              =    -333.18584047 Ry
     estimated scf accuracy    <          1.9E-09 Ry

     iteration #  6     ecut=    30.00 Ry     beta= 0.70
     Davidson diagonalization with overlap
     ethr =  4.28E-12,  avg # of iterations =  4.7

     total cpu time spent up to now is      174.8 secs

     End of self-consistent calculation

          k = 0.1250 0.1250 0.1250 (  1090 PWs)   bands (ev):

   -44.6312 -21.2745 -21.2389 -21.2380  -6.3919  -5.3253  -5.2568  -3.9033
    -3.9025  -3.8828  -3.7318  -3.6677   4.6796   7.2330   7.3112   8.0762
     9.0551   9.0901   9.6899   9.8007   9.9675  10.2372

          k = 0.1250 0.1250 0.3750 (  1095 PWs)   bands (ev):

   -44.6299 -21.3326 -21.2368 -21.2358  -5.9997  -5.2208  -5.0711  -3.9510
    -3.8916  -3.8806  -3.7638  -3.6972   3.9437   6.8415   7.1757   7.7574
     8.5307   8.6758   9.3612   9.8670  10.0640  10.9387

          k = 0.1250 0.3750 0.3750 (  1087 PWs)   bands (ev):

   -44.6287 -21.3290 -21.2922 -21.2342  -5.7712  -5.0932  -4.9613  -3.9315
    -3.8887  -3.8327  -3.7322  -3.5562   3.5949   6.6240   6.9453   7.1585
     7.4562   8.6553   9.4072   9.4428  10.1191  10.6781

          k = 0.3750 0.3750 0.3750 (  1082 PWs)   bands (ev):

   -44.6274 -21.3264 -21.2899 -21.2897  -5.3666  -5.2124  -5.1409  -3.8441
    -3.8410  -3.5757  -3.4812  -3.4602   4.1103   5.9134   5.9440   6.6472
     7.0977   7.1130   8.1564  10.6206  10.6247  10.7121

          k = 0.3750-0.1250 0.1250 (  1095 PWs)   bands (ev):

   -44.6300 -21.2960 -21.2721 -21.2363  -5.9773  -5.1992  -5.1537  -3.9616
    -3.8943  -3.8778  -3.7679  -3.6600   3.9377   6.8258   7.3190   7.8324
     8.3875   8.7855   9.3178   9.8739   9.9933  10.9067

          k = 0.3750-0.3750 0.1250 (  1087 PWs)   bands (ev):

   -44.6287 -21.2930 -21.2919 -21.2698  -5.7238  -5.1082  -5.0593  -3.9318
    -3.8715  -3.7834  -3.6885  -3.6074   3.5049   6.7739   6.8428   7.1890
     7.5374   8.7084   9.4722   9.4784  10.0970  10.6605

     highest occupied level (ev):    10.9387

!    total energy              =    -333.18584047 Ry
     estimated scf accuracy    <          8.4E-10 Ry

     The total energy is the sum of the following terms:
     one-electron contribution =     -77.48202038 Ry
     hartree contribution      =      66.73950992 Ry
     xc contribution           =     -49.67361068 Ry
     ewald contribution        =    -272.76971933 Ry

     convergence has been achieved in   6 iterations

     Forces acting on atoms (cartesian axes, Ry/au):

     atom    1 type  2   force =     0.00000000    0.00000000    0.00255001
     atom    2 type  3   force =     0.00000000    0.00000000   -0.00003336
     atom    3 type  1   force =     0.00000000    0.00000000   -0.00109274
     atom    4 type  1   force =     0.00000000    0.00000000   -0.00109274
     atom    5 type  1   force =     0.00000000    0.00000000   -0.00033118

     Total force =     0.001580     Total SCF correction =     0.000017


     Computing stress (Cartesian axis) and pressure

          total   stress  (Ry/bohr**3)                   (kbar)     P=       -1.74
  -0.00006290   0.00000000   0.00000000           -9.25        0.00        0.00
   0.00000000  -0.00006290   0.00000000            0.00       -9.25        0.00
   0.00000000   0.00000000   0.00009024            0.00        0.00       13.27

     Energy error            =      1.3E-05 Ry
     Gradient error          =      1.1E-03 Ry/Bohr

     number of scf cycles    =  33
     number of bfgs steps    =  31

     energy             old  =    -333.1858270654 Ry
     energy             new  =    -333.1858404698 Ry

     CASE: energy            _new < energy            _old

     new trust radius        =       0.0075624842 bohr
     new conv_thr            =       0.0000000010 Ry


ATOMIC_POSITIONS (angstrom)
Pb               0.0000000000        0.0000000000        0.0000000000    0   0   0
Ti               1.9375000000        1.9375000000        1.8600000000    0   0   0
O                0.0000000000        1.9375000000        1.7064917705
O                1.9375000000        0.0000000000        1.7064917705
O                1.9375000000        1.9375000000       -0.1890960409


     Message from routine punch:
     Nothing written, as per user request (disk_io='none')
     NEW-OLD atomic charge density approx. for the potential

     total cpu time spent up to now is      176.3 secs

     Self-consistent Calculation

     iteration #  1     ecut=    30.00 Ry     beta= 0.70
     Davidson diagonalization with overlap
     ethr =  1.00E-06,  avg # of iterations =  3.7

     Threshold (ethr) on eigenvalues was too large:
     Diagonalizing with lowered threshold

     Davidson diagonalization with overlap
     ethr =  1.89E-08,  avg # of iterations =  5.3

     total cpu time spent up to now is      177.1 secs

     total energy              =    -333.18585691 Ry
     estimated scf accuracy    <       0.00001068 Ry

     iteration #  2     ecut=    30.00 Ry     beta= 0.70
     Davidson diagonalization with overlap
     ethr =  2.43E-08,  avg # of iterations =  2.2

     total cpu time spent up to now is      177.4 secs

     total energy              =    -333.18585839 Ry
     estimated scf accuracy    <       0.00000066 Ry

     iteration #  3     ecut=    30.00 Ry     beta= 0.70
     Davidson diagonalization with overlap
     ethr =  1.50E-09,  avg # of iterations =  3.5

     total cpu time spent up to now is      177.9 secs

     total energy              =    -333.18585853 Ry
     estimated scf accuracy    <       0.00000015 Ry

     iteration #  4     ecut=    30.00 Ry     beta= 0.70
     Davidson diagonalization with overlap
     ethr =  3.35E-10,  avg # of iterations =  4.8

     total cpu time spent up to now is      178.3 secs

     total energy              =    -333.18585856 Ry
     estimated scf accuracy    <       0.00000008 Ry

     iteration #  5     ecut=    30.00 Ry     beta= 0.70
     Davidson diagonalization with overlap
     ethr =  1.76E-10,  avg # of iterations =  4.2

     total cpu time spent up to now is      178.7 secs

     total energy              =    -333.18585858 Ry
     estimated scf accuracy    <          6.3E-09 Ry

     iteration #  6     ecut=    30.00 Ry     beta= 0.70
     Davidson diagonalization with overlap
     ethr =  1.43E-11,  avg # of iterations =  3.3

     total cpu time spent up to now is      179.1 secs

     End of self-consistent calculation

          k = 0.1250 0.1250 0.1250 (  1090 PWs)   bands (ev):

   -44.6294 -21.2746 -21.2370 -21.2361  -6.3940  -5.3271  -5.2570  -3.9017
    -3.9008  -3.8808  -3.7305  -3.6641   4.6800   7.2296   7.3110   8.0750
     9.0506   9.0878   9.6812   9.7966   9.9674  10.2384

          k = 0.1250 0.1250 0.3750 (  1095 PWs)   bands (ev):

   -44.6282 -21.3327 -21.2348 -21.2339  -6.0020  -5.2230  -5.0713  -3.9490
    -3.8897  -3.8787  -3.7600  -3.6958   3.9436   6.8406   7.1680   7.7539
     8.5343   8.6721   9.3608   9.8630  10.0626  10.9414

          k = 0.1250 0.3750 0.3750 (  1087 PWs)   bands (ev):

   -44.6269 -21.3291 -21.2903 -21.2323  -5.7730  -5.0965  -4.9626  -3.9297
    -3.8868  -3.8309  -3.7298  -3.5529   3.5959   6.6185   6.9477   7.1579
     7.4544   8.6552   9.4060   9.4404  10.1211  10.6756

          k = 0.3750 0.3750 0.3750 (  1082 PWs)   bands (ev):

   -44.6256 -21.3265 -21.2879 -21.2877  -5.3692  -5.2150  -5.1417  -3.8423
    -3.8390  -3.5747  -3.4790  -3.4573   4.1080   5.9125   5.9433   6.6443
     7.1014   7.1180   8.1616  10.6185  10.6213  10.7094

          k = 0.3750-0.1250 0.1250 (  1095 PWs)   bands (ev):

   -44.6282 -21.2941 -21.2722 -21.2344  -5.9795  -5.2014  -5.1557  -3.9597
    -3.8925  -3.8759  -3.7647  -3.6571   3.9378   6.8262   7.3184   7.8312
     8.3851   8.7874   9.3142   9.8704   9.9881  10.9073

          k = 0.3750-0.3750 0.1250 (  1087 PWs)   bands (ev):

   -44.6269 -21.2911 -21.2900 -21.2699  -5.7253  -5.1114  -5.0631  -3.9299
    -3.8693  -3.7800  -3.6846  -3.6059   3.5032   6.7730   6.8437   7.1891
     7.5391   8.7093   9.4717   9.4795  10.0982  10.6582

     highest occupied level (ev):    10.9414

!    total energy              =    -333.18585858 Ry
     estimated scf accuracy    <          8.0E-10 Ry

     The total energy is the sum of the following terms:
     one-electron contribution =     -77.51444997 Ry
     hartree contribution      =      66.75634953 Ry
     xc contribution           =     -49.67456866 Ry
     ewald contribution        =    -272.75318948 Ry

     convergence has been achieved in   6 iterations

     Forces acting on atoms (cartesian axes, Ry/au):

     atom    1 type  2   force =     0.00000000    0.00000000    0.00268929
     atom    2 type  3   force =     0.00000000    0.00000000   -0.00064095
     atom    3 type  1   force =     0.00000000    0.00000000   -0.00089750
     atom    4 type  1   force =     0.00000000    0.00000000   -0.00089750
     atom    5 type  1   force =     0.00000000    0.00000000   -0.00025333

     Total force =     0.001294     Total SCF correction =     0.000019


     Computing stress (Cartesian axis) and pressure

          total   stress  (Ry/bohr**3)                   (kbar)     P=       -1.26
  -0.00006226   0.00000000   0.00000000           -9.16        0.00        0.00
   0.00000000  -0.00006226   0.00000000            0.00       -9.16        0.00
   0.00000000   0.00000000   0.00009874            0.00        0.00       14.53

     Energy error            =      1.8E-05 Ry
     Gradient error          =      9.0E-04 Ry/Bohr

     bfgs converged in  34 scf cycles and  32 bfgs steps
     (criteria: energy <  1.0E-04 Ry, force <  1.0E-03 Ry/Bohr)

     End of BFGS Geometry Optimization

     Final energy             =    -333.1858585805 Ry

     File /home/bond/Work/Lab4/Problem2/PbTiO3_a_3.875_ecut_30_nk_4_displ_-0.02/pwscf.bfgs deleted, as requested
Begin final coordinates

ATOMIC_POSITIONS (angstrom)
Pb               0.0000000000        0.0000000000        0.0000000000    0   0   0
Ti               1.9375000000        1.9375000000        1.8600000000    0   0   0
O                0.0000000000        1.9375000000        1.7064917705
O                1.9375000000        0.0000000000        1.7064917705
O                1.9375000000        1.9375000000       -0.1890960409
End final coordinates


     Message from routine punch:
     Nothing written, as per user request (disk_io='none')

     init_run     :      1.11s CPU      1.39s WALL (       1 calls)
     electrons    :    107.02s CPU    124.75s WALL (      34 calls)
     update_pot   :      0.25s CPU      0.32s WALL (      33 calls)
     forces       :      4.72s CPU      5.60s WALL (      34 calls)
     stress       :     41.01s CPU     43.55s WALL (      34 calls)

     Called by init_run:
     wfcinit      :      0.09s CPU      0.10s WALL (       1 calls)
     potinit      :      0.08s CPU      0.08s WALL (       1 calls)
     hinit0       :      0.75s CPU      0.99s WALL (       1 calls)

     Called by electrons:
     c_bands      :     49.24s CPU     53.02s WALL (     273 calls)
     sum_band     :     33.55s CPU     41.11s WALL (     273 calls)
     v_of_rho     :      0.90s CPU      0.95s WALL (     287 calls)
     newd         :     25.93s CPU     33.09s WALL (     287 calls)
     mix_rho      :      0.44s CPU      0.47s WALL (     273 calls)

     Called by c_bands:
     init_us_2    :      1.43s CPU      1.53s WALL (    3690 calls)
     cegterg      :     46.22s CPU     49.85s WALL (    1638 calls)

     Called by *egterg:
     cdiaghg      :      5.89s CPU      6.28s WALL (    8212 calls)
     h_psi        :     31.93s CPU     34.61s WALL (    8536 calls)
     s_psi        :      1.31s CPU      1.43s WALL (    8536 calls)
     g_psi        :      0.21s CPU      0.25s WALL (    6892 calls)

     Called by h_psi:
     h_psi:calbec :      2.37s CPU      2.60s WALL (    8536 calls)
     vloc_psi     :     27.81s CPU     30.11s WALL (    8536 calls)
     add_vuspsi   :      1.48s CPU      1.61s WALL (    8536 calls)

     General routines
     calbec       :      4.14s CPU      4.51s WALL (   13642 calls)
     fft          :      1.53s CPU      1.62s WALL (    1877 calls)
     ffts         :      0.12s CPU      0.13s WALL (     560 calls)
     fftw         :     25.42s CPU     27.67s WALL (  254434 calls)
     interpolate  :      0.29s CPU      0.30s WALL (     287 calls)

     Parallel routines

     PWSCF        :   2m37.95s CPU   3m 0.40s WALL


   This run was terminated on:  12:59:42  21Oct2025            

=------------------------------------------------------------------------------=
   JOB DONE.
=------------------------------------------------------------------------------=
