LAMMPS (22 Jul 2025 - Update 1)
Reading data file ...
  orthogonal box = (0 0 0) to (12.244965 8.6584976 8.3292488)
  1 by 1 by 1 MPI processor grid
  reading atoms ...
  36 atoms
  read_data CPU = 0.001 seconds
Reading eam/alloy potential file /home/bond/Software/LAMMPS/lammps-22Jul2025/potentials/Al_zhou.eam.alloy with DATE: 2007-10-12
WARNING: No fixes with time integration, atoms won't move
For more information see https://docs.lammps.org/err0028 (../verlet.cpp:60)
Neighbor list info ...
  update: every = 1 steps, delay = 0 steps, check = yes
  max neighbors/atom: 2000, page size: 100000
  master list distance cutoff = 12.1025
  ghost atom cutoff = 12.1025
  binsize = 6.05125, bins = 3 2 2
  1 neighbor lists, perpetual/occasional/extra = 1 0 0
  (1) pair eam/alloy, perpetual
      attributes: half, newton on
      pair build: half/bin/atomonly/newton
      stencil: half/bin/3d
      bin: standard
Setting up Verlet run ...
  Unit style    : metal
  Current step  : 0
  Time step     : 0.001
Per MPI rank memory allocation (min/avg/max) = 3.311 | 3.311 | 3.311 Mbytes
   Step         PotEng           Lx             Ly             Lz           Press           Pxx            Pyy            Pzz      
         0  -115.81458      12.244965      8.6584976      8.3292488     -46754.672     -58074.667     -54613.396     -27575.952    
Loop time of 2.22e-06 on 1 procs for 0 steps with 36 atoms

90.1% CPU use with 1 MPI tasks x no OpenMP threads

MPI task timing breakdown:
Section |  min time  |  avg time  |  max time  |%varavg| %total
---------------------------------------------------------------
Pair    | 0          | 0          | 0          |   0.0 |  0.00
Neigh   | 0          | 0          | 0          |   0.0 |  0.00
Comm    | 0          | 0          | 0          |   0.0 |  0.00
Output  | 0          | 0          | 0          |   0.0 |  0.00
Modify  | 0          | 0          | 0          |   0.0 |  0.00
Other   |            | 2.22e-06   |            |       |100.00

Nlocal:             36 ave          36 max          36 min
Histogram: 1 0 0 0 0 0 0 0 0 0
Nghost:            354 ave         354 max         354 min
Histogram: 1 0 0 0 0 0 0 0 0 0
Neighs:           2646 ave        2646 max        2646 min
Histogram: 1 0 0 0 0 0 0 0 0 0

Total # of neighbors = 2646
Ave neighs/atom = 73.5
Neighbor list builds = 0
Dangerous builds = 0
Setting up cg style minimization ...
  Unit style    : metal
  Current step  : 0
Per MPI rank memory allocation (min/avg/max) = 4.436 | 4.436 | 4.436 Mbytes
   Step         PotEng           Lx             Ly             Lz           Press           Pxx            Pyy            Pzz      
         0  -115.81458      12.244965      8.6584976      8.3292488     -46754.672     -58074.667     -54613.396     -27575.952    
         6  -116.35855      12.244965      8.6584976      8.3292488     -21243.938     -31594.434     -32137.486      0.10470069   
Loop time of 0.00166376 on 1 procs for 6 steps with 36 atoms

19.4% CPU use with 1 MPI tasks x no OpenMP threads

Minimization stats:
  Stopping criterion = energy tolerance
  Energy initial, next-to-last, final = 
     -115.814584957707  -116.358553796426  -116.358553796782
  Force two-norm initial, final = 1.7924617 2.0687244e-05
  Force max component initial, final = 0.41554579 5.1477441e-06
  Final line search alpha, max atom move = 1 5.1477441e-06
  Iterations, force evaluations = 6 11

MPI task timing breakdown:
Section |  min time  |  avg time  |  max time  |%varavg| %total
---------------------------------------------------------------
Pair    | 0.001587   | 0.001587   | 0.001587   |   0.0 | 95.39
Neigh   | 0          | 0          | 0          |   0.0 |  0.00
Comm    | 2.4275e-05 | 2.4275e-05 | 2.4275e-05 |   0.0 |  1.46
Output  | 0          | 0          | 0          |   0.0 |  0.00
Modify  | 0          | 0          | 0          |   0.0 |  0.00
Other   |            | 5.245e-05  |            |       |  3.15

Nlocal:             36 ave          36 max          36 min
Histogram: 1 0 0 0 0 0 0 0 0 0
Nghost:            354 ave         354 max         354 min
Histogram: 1 0 0 0 0 0 0 0 0 0
Neighs:           2646 ave        2646 max        2646 min
Histogram: 1 0 0 0 0 0 0 0 0 0

Total # of neighbors = 2646
Ave neighs/atom = 73.5
Neighbor list builds = 0
Dangerous builds = 0
Total energy (eV) = -116.358553796782
Number of atoms = 36
Lattice constant (Angstoms) = 12.2449647145904
Total wall time: 0:00:00
