LAMMPS (22 Jul 2025 - Update 1)
Reading data file ...
  orthogonal box = (0 0 0) to (89.796408 89.796408 89.796408)
  1 by 1 by 1 MPI processor grid
  reading atoms ...
  42591 atoms
  read_data CPU = 0.121 seconds
Reading eam/alloy potential file /home/bond/Software/LAMMPS/lammps-22Jul2025/potentials/Al_zhou.eam.alloy with DATE: 2007-10-12
WARNING: No fixes with time integration, atoms won't move
For more information see https://docs.lammps.org/err0028 (../verlet.cpp:60)
Neighbor list info ...
  update: every = 1 steps, delay = 0 steps, check = yes
  max neighbors/atom: 2000, page size: 100000
  master list distance cutoff = 12.1025
  ghost atom cutoff = 12.1025
  binsize = 6.05125, bins = 15 15 15
  1 neighbor lists, perpetual/occasional/extra = 1 0 0
  (1) pair eam/alloy, perpetual
      attributes: half, newton on
      pair build: half/bin/atomonly/newton
      stencil: half/bin/3d
      bin: standard
Setting up Verlet run ...
  Unit style    : metal
  Current step  : 0
  Time step     : 0.001
Per MPI rank memory allocation (min/avg/max) = 53.71 | 53.71 | 53.71 Mbytes
   Step         PotEng           Lx             Ly             Lz           Press           Pxx            Pyy            Pzz      
         0  -152474.92      89.796408      89.796408      89.796408     -6.6876878     -6.6876905     -6.6876823     -6.6876905    
Loop time of 2.423e-06 on 1 procs for 0 steps with 42591 atoms

206.4% CPU use with 1 MPI tasks x no OpenMP threads

MPI task timing breakdown:
Section |  min time  |  avg time  |  max time  |%varavg| %total
---------------------------------------------------------------
Pair    | 0          | 0          | 0          |   0.0 |  0.00
Neigh   | 0          | 0          | 0          |   0.0 |  0.00
Comm    | 0          | 0          | 0          |   0.0 |  0.00
Output  | 0          | 0          | 0          |   0.0 |  0.00
Modify  | 0          | 0          | 0          |   0.0 |  0.00
Other   |            | 2.423e-06  |            |       |100.00

Nlocal:          42591 ave       42591 max       42591 min
Histogram: 1 0 0 0 0 0 0 0 0 0
Nghost:          40588 ave       40588 max       40588 min
Histogram: 1 0 0 0 0 0 0 0 0 0
Neighs:    9.11426e+06 ave 9.11426e+06 max 9.11426e+06 min
Histogram: 1 0 0 0 0 0 0 0 0 0

Total # of neighbors = 9114260
Ave neighs/atom = 213.99498
Neighbor list builds = 0
Dangerous builds = 0
Setting up cg style minimization ...
  Unit style    : metal
  Current step  : 0
WARNING: Energy due to 1 extra global DOFs will be included in minimizer energies
 (../min.cpp:222)
Per MPI rank memory allocation (min/avg/max) = 60.46 | 60.46 | 60.46 Mbytes
   Step         PotEng           Lx             Ly             Lz           Press           Pxx            Pyy            Pzz      
         0  -152474.92      89.796408      89.796408      89.796408     -6.6876878     -6.6876905     -6.6876823     -6.6876905    
         1  -152474.92      89.7962        89.7962        89.7962        0.016634796    0.016632058    0.016640273    0.016632058  
Loop time of 1.38201 on 1 procs for 1 steps with 42591 atoms

100.0% CPU use with 1 MPI tasks x no OpenMP threads

Minimization stats:
  Stopping criterion = energy tolerance
  Energy initial, next-to-last, final = 
     -152474.915895534  -152474.915895534  -152474.915903503
  Force two-norm initial, final = 9.1008145 0.78411203
  Force max component initial, final = 9.0670034 0.15787552
  Final line search alpha, max atom move = 0.00011029002 1.7412095e-05
  Iterations, force evaluations = 1 2

MPI task timing breakdown:
Section |  min time  |  avg time  |  max time  |%varavg| %total
---------------------------------------------------------------
Pair    | 1.3726     | 1.3726     | 1.3726     |   0.0 | 99.32
Neigh   | 0          | 0          | 0          |   0.0 |  0.00
Comm    | 0.0013859  | 0.0013859  | 0.0013859  |   0.0 |  0.10
Output  | 0          | 0          | 0          |   0.0 |  0.00
Modify  | 0          | 0          | 0          |   0.0 |  0.00
Other   |            | 0.008054   |            |       |  0.58

Nlocal:          42591 ave       42591 max       42591 min
Histogram: 1 0 0 0 0 0 0 0 0 0
Nghost:          40588 ave       40588 max       40588 min
Histogram: 1 0 0 0 0 0 0 0 0 0
Neighs:    9.11426e+06 ave 9.11426e+06 max 9.11426e+06 min
Histogram: 1 0 0 0 0 0 0 0 0 0

Total # of neighbors = 9114260
Ave neighs/atom = 213.99498
Neighbor list builds = 0
Dangerous builds = 0
Total energy (eV) = -152474.915903503
Number of atoms = 42591
Lattice constant (Angstoms) = 89.7962001658433
Total wall time: 0:00:02
