Header of the LAMMPS data file 

42591 atoms 
1 atom types

0.0 89.79640790699634  xlo xhi
0.0 89.79640790699634  ylo yhi
0.0 89.79640790699634  zlo zhi

Masses 

1  26.9815385

Atoms # atomic 

1 1 0.00000 0.00000 0.00000 
2 1 0.00000 2.04083 2.04083 
3 1 2.04083 2.04083 0.00000 
4 1 0.00000 0.00000 4.08165 
5 1 0.00000 2.04083 6.12248 
6 1 2.04083 0.00000 6.12248 
7 1 2.04083 2.04083 4.08165 
8 1 0.00000 0.00000 8.16331 
9 1 0.00000 2.04083 10.20414 
10 1 2.04083 0.00000 10.20414 
11 1 2.04083 2.04083 8.16331 
12 1 0.00000 0.00000 12.24496 
13 1 0.00000 2.04083 14.28579 
14 1 2.04083 0.00000 14.28579 
15 1 2.04083 2.04083 12.24496 
16 1 0.00000 0.00000 16.32662 
17 1 0.00000 2.04083 18.36745 
18 1 2.04083 0.00000 18.36745 
19 1 2.04083 2.04083 16.32662 
20 1 0.00000 0.00000 20.40827 
21 1 0.00000 2.04083 22.44910 
22 1 2.04083 0.00000 22.44910 
23 1 2.04083 2.04083 20.40827 
24 1 0.00000 0.00000 24.48993 
25 1 0.00000 2.04083 26.53076 
26 1 2.04083 0.00000 26.53076 
27 1 2.04083 2.04083 24.48993 
28 1 0.00000 0.00000 28.57158 
29 1 0.00000 2.04083 30.61241 
30 1 2.04083 0.00000 30.61241 
31 1 2.04083 2.04083 28.57158 
32 1 0.00000 0.00000 32.65324 
33 1 0.00000 2.04083 34.69407 
34 1 2.04083 0.00000 34.69407 
35 1 2.04083 2.04083 32.65324 
36 1 0.00000 0.00000 36.73489 
37 1 0.00000 2.04083 38.77572 
38 1 2.04083 0.00000 38.77572 
39 1 2.04083 2.04083 36.73489 
40 1 0.00000 0.00000 40.81655 
41 1 0.00000 2.04083 42.85738 
42 1 2.04083 0.00000 42.85738 
43 1 2.04083 2.04083 40.81655 
44 1 0.00000 0.00000 44.89820 
45 1 0.00000 2.04083 46.93903 
46 1 2.04083 0.00000 46.93903 
47 1 2.04083 2.04083 44.89820 
48 1 0.00000 0.00000 48.97986 
49 1 0.00000 2.04083 51.02069 
50 1 2.04083 0.00000 51.02069 
51 1 2.04083 2.04083 48.97986 
52 1 0.00000 0.00000 53.06151 
53 1 0.00000 2.04083 55.10234 
54 1 2.04083 0.00000 55.10234 
55 1 2.04083 2.04083 53.06151 
56 1 0.00000 0.00000 57.14317 
57 1 0.00000 2.04083 59.18400 
58 1 2.04083 0.00000 59.18400 
59 1 2.04083 2.04083 57.14317 
60 1 0.00000 0.00000 61.22482 
61 1 0.00000 2.04083 63.26565 
62 1 2.04083 0.00000 63.26565 
63 1 2.04083 2.04083 61.22482 
64 1 0.00000 0.00000 65.30648 
65 1 0.00000 2.04083 67.34731 
66 1 2.04083 0.00000 67.34731 
67 1 2.04083 2.04083 65.30648 
68 1 0.00000 0.00000 69.38813 
69 1 0.00000 2.04083 71.42896 
70 1 2.04083 0.00000 71.42896 
71 1 2.04083 2.04083 69.38813 
72 1 0.00000 0.00000 73.46979 
73 1 0.00000 2.04083 75.51062 
74 1 2.04083 0.00000 75.51062 
75 1 2.04083 2.04083 73.46979 
76 1 0.00000 0.00000 77.55144 
77 1 0.00000 2.04083 79.59227 
78 1 2.04083 0.00000 79.59227 
79 1 2.04083 2.04083 77.55144 
80 1 0.00000 0.00000 81.63310 
81 1 0.00000 2.04083 83.67393 
82 1 2.04083 0.00000 83.67393 
83 1 2.04083 2.04083 81.63310 
84 1 0.00000 0.00000 85.71475 
85 1 0.00000 2.04083 87.75558 
86 1 2.04083 0.00000 87.75558 
87 1 2.04083 2.04083 85.71475 
88 1 0.00000 4.08165 0.00000 
89 1 0.00000 6.12248 2.04083 
90 1 2.04083 4.08165 2.04083 
91 1 2.04083 6.12248 0.00000 
92 1 0.00000 4.08165 4.08165 
93 1 0.00000 6.12248 6.12248 
94 1 2.04083 4.08165 6.12248 
95 1 2.04083 6.12248 4.08165 
96 1 0.00000 4.08165 8.16331 
97 1 0.00000 6.12248 10.20414 
98 1 2.04083 4.08165 10.20414 
99 1 2.04083 6.12248 8.16331 
100 1 0.00000 4.08165 12.24496 
101 1 0.00000 6.12248 14.28579 
102 1 2.04083 4.08165 14.28579 
103 1 2.04083 6.12248 12.24496 
104 1 0.00000 4.08165 16.32662 
105 1 0.00000 6.12248 18.36745 
106 1 2.04083 4.08165 18.36745 
107 1 2.04083 6.12248 16.32662 
108 1 0.00000 4.08165 20.40827 
109 1 0.00000 6.12248 22.44910 
110 1 2.04083 4.08165 22.44910 
111 1 2.04083 6.12248 20.40827 
112 1 0.00000 4.08165 24.48993 
113 1 0.00000 6.12248 26.53076 
114 1 2.04083 4.08165 26.53076 
115 1 2.04083 6.12248 24.48993 
116 1 0.00000 4.08165 28.57158 
117 1 0.00000 6.12248 30.61241 
118 1 2.04083 4.08165 30.61241 
119 1 2.04083 6.12248 28.57158 
120 1 0.00000 4.08165 32.65324 
121 1 0.00000 6.12248 34.69407 
122 1 2.04083 4.08165 34.69407 
123 1 2.04083 6.12248 32.65324 
124 1 0.00000 4.08165 36.73489 
125 1 0.00000 6.12248 38.77572 
126 1 2.04083 4.08165 38.77572 
127 1 2.04083 6.12248 36.73489 
128 1 0.00000 4.08165 40.81655 
129 1 0.00000 6.12248 42.85738 
130 1 2.04083 4.08165 42.85738 
131 1 2.04083 6.12248 40.81655 
132 1 0.00000 4.08165 44.89820 
133 1 0.00000 6.12248 46.93903 
134 1 2.04083 4.08165 46.93903 
135 1 2.04083 6.12248 44.89820 
136 1 0.00000 4.08165 48.97986 
137 1 0.00000 6.12248 51.02069 
138 1 2.04083 4.08165 51.02069 
139 1 2.04083 6.12248 48.97986 
140 1 0.00000 4.08165 53.06151 
141 1 0.00000 6.12248 55.10234 
142 1 2.04083 4.08165 55.10234 
143 1 2.04083 6.12248 53.06151 
144 1 0.00000 4.08165 57.14317 
145 1 0.00000 6.12248 59.18400 
146 1 2.04083 4.08165 59.18400 
147 1 2.04083 6.12248 57.14317 
148 1 0.00000 4.08165 61.22482 
149 1 0.00000 6.12248 63.26565 
150 1 2.04083 4.08165 63.26565 
151 1 2.04083 6.12248 61.22482 
152 1 0.00000 4.08165 65.30648 
153 1 0.00000 6.12248 67.34731 
154 1 2.04083 4.08165 67.34731 
155 1 2.04083 6.12248 65.30648 
156 1 0.00000 4.08165 69.38813 
157 1 0.00000 6.12248 71.42896 
158 1 2.04083 4.08165 71.42896 
159 1 2.04083 6.12248 69.38813 
160 1 0.00000 4.08165 73.46979 
161 1 0.00000 6.12248 75.51062 
162 1 2.04083 4.08165 75.51062 
163 1 2.04083 6.12248 73.46979 
164 1 0.00000 4.08165 77.55144 
165 1 0.00000 6.12248 79.59227 
166 1 2.04083 4.08165 79.59227 
167 1 2.04083 6.12248 77.55144 
168 1 0.00000 4.08165 81.63310 
169 1 0.00000 6.12248 83.67393 
170 1 2.04083 4.08165 83.67393 
171 1 2.04083 6.12248 81.63310 
172 1 0.00000 4.08165 85.71475 
173 1 0.00000 6.12248 87.75558 
174 1 2.04083 4.08165 87.75558 
175 1 2.04083 6.12248 85.71475 
176 1 0.00000 8.16331 0.00000 
177 1 0.00000 10.20414 2.04083 
178 1 2.04083 8.16331 2.04083 
179 1 2.04083 10.20414 0.00000 
180 1 0.00000 8.16331 4.08165 
181 1 0.00000 10.20414 6.12248 
182 1 2.04083 8.16331 6.12248 
183 1 2.04083 10.20414 4.08165 
184 1 0.00000 8.16331 8.16331 
185 1 0.00000 10.20414 10.20414 
186 1 2.04083 8.16331 10.20414 
187 1 2.04083 10.20414 8.16331 
188 1 0.00000 8.16331 12.24496 
189 1 0.00000 10.20414 14.28579 
190 1 2.04083 8.16331 14.28579 
191 1 2.04083 10.20414 12.24496 
192 1 0.00000 8.16331 16.32662 
193 1 0.00000 10.20414 18.36745 
194 1 2.04083 8.16331 18.36745 
195 1 2.04083 10.20414 16.32662 
196 1 0.00000 8.16331 20.40827 
197 1 0.00000 10.20414 22.44910 
198 1 2.04083 8.16331 22.44910 
199 1 2.04083 10.20414 20.40827 
200 1 0.00000 8.16331 24.48993 
201 1 0.00000 10.20414 26.53076 
202 1 2.04083 8.16331 26.53076 
203 1 2.04083 10.20414 24.48993 
204 1 0.00000 8.16331 28.57158 
205 1 0.00000 10.20414 30.61241 
206 1 2.04083 8.16331 30.61241 
207 1 2.04083 10.20414 28.57158 
208 1 0.00000 8.16331 32.65324 
209 1 0.00000 10.20414 34.69407 
210 1 2.04083 8.16331 34.69407 
211 1 2.04083 10.20414 32.65324 
212 1 0.00000 8.16331 36.73489 
213 1 0.00000 10.20414 38.77572 
214 1 2.04083 8.16331 38.77572 
215 1 2.04083 10.20414 36.73489 
216 1 0.00000 8.16331 40.81655 
217 1 0.00000 10.20414 42.85738 
218 1 2.04083 8.16331 42.85738 
219 1 2.04083 10.20414 40.81655 
220 1 0.00000 8.16331 44.89820 
221 1 0.00000 10.20414 46.93903 
222 1 2.04083 8.16331 46.93903 
223 1 2.04083 10.20414 44.89820 
224 1 0.00000 8.16331 48.97986 
225 1 0.00000 10.20414 51.02069 
226 1 2.04083 8.16331 51.02069 
227 1 2.04083 10.20414 48.97986 
228 1 0.00000 8.16331 53.06151 
229 1 0.00000 10.20414 55.10234 
230 1 2.04083 8.16331 55.10234 
231 1 2.04083 10.20414 53.06151 
232 1 0.00000 8.16331 57.14317 
233 1 0.00000 10.20414 59.18400 
234 1 2.04083 8.16331 59.18400 
235 1 2.04083 10.20414 57.14317 
236 1 0.00000 8.16331 61.22482 
237 1 0.00000 10.20414 63.26565 
238 1 2.04083 8.16331 63.26565 
239 1 2.04083 10.20414 61.22482 
240 1 0.00000 8.16331 65.30648 
241 1 0.00000 10.20414 67.34731 
242 1 2.04083 8.16331 67.34731 
243 1 2.04083 10.20414 65.30648 
244 1 0.00000 8.16331 69.38813 
245 1 0.00000 10.20414 71.42896 
246 1 2.04083 8.16331 71.42896 
247 1 2.04083 10.20414 69.38813 
248 1 0.00000 8.16331 73.46979 
249 1 0.00000 10.20414 75.51062 
250 1 2.04083 8.16331 75.51062 
251 1 2.04083 10.20414 73.46979 
252 1 0.00000 8.16331 77.55144 
253 1 0.00000 10.20414 79.59227 
254 1 2.04083 8.16331 79.59227 
255 1 2.04083 10.20414 77.55144 
256 1 0.00000 8.16331 81.63310 
257 1 0.00000 10.20414 83.67393 
258 1 2.04083 8.16331 83.67393 
259 1 2.04083 10.20414 81.63310 
260 1 0.00000 8.16331 85.71475 
261 1 0.00000 10.20414 87.75558 
262 1 2.04083 8.16331 87.75558 
263 1 2.04083 10.20414 85.71475 
264 1 0.00000 12.24496 0.00000 
265 1 0.00000 14.28579 2.04083 
266 1 2.04083 12.24496 2.04083 
267 1 2.04083 14.28579 0.00000 
268 1 0.00000 12.24496 4.08165 
269 1 0.00000 14.28579 6.12248 
270 1 2.04083 12.24496 6.12248 
271 1 2.04083 14.28579 4.08165 
272 1 0.00000 12.24496 8.16331 
273 1 0.00000 14.28579 10.20414 
274 1 2.04083 12.24496 10.20414 
275 1 2.04083 14.28579 8.16331 
276 1 0.00000 12.24496 12.24496 
277 1 0.00000 14.28579 14.28579 
278 1 2.04083 12.24496 14.28579 
279 1 2.04083 14.28579 12.24496 
280 1 0.00000 12.24496 16.32662 
281 1 0.00000 14.28579 18.36745 
282 1 2.04083 12.24496 18.36745 
283 1 2.04083 14.28579 16.32662 
284 1 0.00000 12.24496 20.40827 
285 1 0.00000 14.28579 22.44910 
286 1 2.04083 12.24496 22.44910 
287 1 2.04083 14.28579 20.40827 
288 1 0.00000 12.24496 24.48993 
289 1 0.00000 14.28579 26.53076 
290 1 2.04083 12.24496 26.53076 
291 1 2.04083 14.28579 24.48993 
292 1 0.00000 12.24496 28.57158 
293 1 0.00000 14.28579 30.61241 
294 1 2.04083 12.24496 30.61241 
295 1 2.04083 14.28579 28.57158 
296 1 0.00000 12.24496 32.65324 
297 1 0.00000 14.28579 34.69407 
298 1 2.04083 12.24496 34.69407 
299 1 2.04083 14.28579 32.65324 
300 1 0.00000 12.24496 36.73489 
301 1 0.00000 14.28579 38.77572 
302 1 2.04083 12.24496 38.77572 
303 1 2.04083 14.28579 36.73489 
304 1 0.00000 12.24496 40.81655 
305 1 0.00000 14.28579 42.85738 
306 1 2.04083 12.24496 42.85738 
307 1 2.04083 14.28579 40.81655 
308 1 0.00000 12.24496 44.89820 
309 1 0.00000 14.28579 46.93903 
310 1 2.04083 12.24496 46.93903 
311 1 2.04083 14.28579 44.89820 
312 1 0.00000 12.24496 48.97986 
313 1 0.00000 14.28579 51.02069 
314 1 2.04083 12.24496 51.02069 
315 1 2.04083 14.28579 48.97986 
316 1 0.00000 12.24496 53.06151 
317 1 0.00000 14.28579 55.10234 
318 1 2.04083 12.24496 55.10234 
319 1 2.04083 14.28579 53.06151 
320 1 0.00000 12.24496 57.14317 
321 1 0.00000 14.28579 59.18400 
322 1 2.04083 12.24496 59.18400 
323 1 2.04083 14.28579 57.14317 
324 1 0.00000 12.24496 61.22482 
325 1 0.00000 14.28579 63.26565 
326 1 2.04083 12.24496 63.26565 
327 1 2.04083 14.28579 61.22482 
328 1 0.00000 12.24496 65.30648 
329 1 0.00000 14.28579 67.34731 
330 1 2.04083 12.24496 67.34731 
331 1 2.04083 14.28579 65.30648 
332 1 0.00000 12.24496 69.38813 
333 1 0.00000 14.28579 71.42896 
334 1 2.04083 12.24496 71.42896 
335 1 2.04083 14.28579 69.38813 
336 1 0.00000 12.24496 73.46979 
337 1 0.00000 14.28579 75.51062 
338 1 2.04083 12.24496 75.51062 
339 1 2.04083 14.28579 73.46979 
340 1 0.00000 12.24496 77.55144 
341 1 0.00000 14.28579 79.59227 
342 1 2.04083 12.24496 79.59227 
343 1 2.04083 14.28579 77.55144 
344 1 0.00000 12.24496 81.63310 
345 1 0.00000 14.28579 83.67393 
346 1 2.04083 12.24496 83.67393 
347 1 2.04083 14.28579 81.63310 
348 1 0.00000 12.24496 85.71475 
349 1 0.00000 14.28579 87.75558 
350 1 2.04083 12.24496 87.75558 
351 1 2.04083 14.28579 85.71475 
352 1 0.00000 16.32662 0.00000 
353 1 0.00000 18.36745 2.04083 
354 1 2.04083 16.32662 2.04083 
355 1 2.04083 18.36745 0.00000 
356 1 0.00000 16.32662 4.08165 
357 1 0.00000 18.36745 6.12248 
358 1 2.04083 16.32662 6.12248 
359 1 2.04083 18.36745 4.08165 
360 1 0.00000 16.32662 8.16331 
361 1 0.00000 18.36745 10.20414 
362 1 2.04083 16.32662 10.20414 
363 1 2.04083 18.36745 8.16331 
364 1 0.00000 16.32662 12.24496 
365 1 0.00000 18.36745 14.28579 
366 1 2.04083 16.32662 14.28579 
367 1 2.04083 18.36745 12.24496 
368 1 0.00000 16.32662 16.32662 
369 1 0.00000 18.36745 18.36745 
370 1 2.04083 16.32662 18.36745 
371 1 2.04083 18.36745 16.32662 
372 1 0.00000 16.32662 20.40827 
373 1 0.00000 18.36745 22.44910 
374 1 2.04083 16.32662 22.44910 
375 1 2.04083 18.36745 20.40827 
376 1 0.00000 16.32662 24.48993 
377 1 0.00000 18.36745 26.53076 
378 1 2.04083 16.32662 26.53076 
379 1 2.04083 18.36745 24.48993 
380 1 0.00000 16.32662 28.57158 
381 1 0.00000 18.36745 30.61241 
382 1 2.04083 16.32662 30.61241 
383 1 2.04083 18.36745 28.57158 
384 1 0.00000 16.32662 32.65324 
385 1 0.00000 18.36745 34.69407 
386 1 2.04083 16.32662 34.69407 
387 1 2.04083 18.36745 32.65324 
388 1 0.00000 16.32662 36.73489 
389 1 0.00000 18.36745 38.77572 
390 1 2.04083 16.32662 38.77572 
391 1 2.04083 18.36745 36.73489 
392 1 0.00000 16.32662 40.81655 
393 1 0.00000 18.36745 42.85738 
394 1 2.04083 16.32662 42.85738 
395 1 2.04083 18.36745 40.81655 
396 1 0.00000 16.32662 44.89820 
397 1 0.00000 18.36745 46.93903 
398 1 2.04083 16.32662 46.93903 
399 1 2.04083 18.36745 44.89820 
400 1 0.00000 16.32662 48.97986 
401 1 0.00000 18.36745 51.02069 
402 1 2.04083 16.32662 51.02069 
403 1 2.04083 18.36745 48.97986 
404 1 0.00000 16.32662 53.06151 
405 1 0.00000 18.36745 55.10234 
406 1 2.04083 16.32662 55.10234 
407 1 2.04083 18.36745 53.06151 
408 1 0.00000 16.32662 57.14317 
409 1 0.00000 18.36745 59.18400 
410 1 2.04083 16.32662 59.18400 
411 1 2.04083 18.36745 57.14317 
412 1 0.00000 16.32662 61.22482 
413 1 0.00000 18.36745 63.26565 
414 1 2.04083 16.32662 63.26565 
415 1 2.04083 18.36745 61.22482 
416 1 0.00000 16.32662 65.30648 
417 1 0.00000 18.36745 67.34731 
418 1 2.04083 16.32662 67.34731 
419 1 2.04083 18.36745 65.30648 
420 1 0.00000 16.32662 69.38813 
421 1 0.00000 18.36745 71.42896 
422 1 2.04083 16.32662 71.42896 
423 1 2.04083 18.36745 69.38813 
424 1 0.00000 16.32662 73.46979 
425 1 0.00000 18.36745 75.51062 
426 1 2.04083 16.32662 75.51062 
427 1 2.04083 18.36745 73.46979 
428 1 0.00000 16.32662 77.55144 
429 1 0.00000 18.36745 79.59227 
430 1 2.04083 16.32662 79.59227 
431 1 2.04083 18.36745 77.55144 
432 1 0.00000 16.32662 81.63310 
433 1 0.00000 18.36745 83.67393 
434 1 2.04083 16.32662 83.67393 
435 1 2.04083 18.36745 81.63310 
436 1 0.00000 16.32662 85.71475 
437 1 0.00000 18.36745 87.75558 
438 1 2.04083 16.32662 87.75558 
439 1 2.04083 18.36745 85.71475 
440 1 0.00000 20.40827 0.00000 
441 1 0.00000 22.44910 2.04083 
442 1 2.04083 20.40827 2.04083 
443 1 2.04083 22.44910 0.00000 
444 1 0.00000 20.40827 4.08165 
445 1 0.00000 22.44910 6.12248 
446 1 2.04083 20.40827 6.12248 
447 1 2.04083 22.44910 4.08165 
448 1 0.00000 20.40827 8.16331 
449 1 0.00000 22.44910 10.20414 
450 1 2.04083 20.40827 10.20414 
451 1 2.04083 22.44910 8.16331 
452 1 0.00000 20.40827 12.24496 
453 1 0.00000 22.44910 14.28579 
454 1 2.04083 20.40827 14.28579 
455 1 2.04083 22.44910 12.24496 
456 1 0.00000 20.40827 16.32662 
457 1 0.00000 22.44910 18.36745 
458 1 2.04083 20.40827 18.36745 
459 1 2.04083 22.44910 16.32662 
460 1 0.00000 20.40827 20.40827 
461 1 0.00000 22.44910 22.44910 
462 1 2.04083 20.40827 22.44910 
463 1 2.04083 22.44910 20.40827 
464 1 0.00000 20.40827 24.48993 
465 1 0.00000 22.44910 26.53076 
466 1 2.04083 20.40827 26.53076 
467 1 2.04083 22.44910 24.48993 
468 1 0.00000 20.40827 28.57158 
469 1 0.00000 22.44910 30.61241 
470 1 2.04083 20.40827 30.61241 
471 1 2.04083 22.44910 28.57158 
472 1 0.00000 20.40827 32.65324 
473 1 0.00000 22.44910 34.69407 
474 1 2.04083 20.40827 34.69407 
475 1 2.04083 22.44910 32.65324 
476 1 0.00000 20.40827 36.73489 
477 1 0.00000 22.44910 38.77572 
478 1 2.04083 20.40827 38.77572 
479 1 2.04083 22.44910 36.73489 
480 1 0.00000 20.40827 40.81655 
481 1 0.00000 22.44910 42.85738 
482 1 2.04083 20.40827 42.85738 
483 1 2.04083 22.44910 40.81655 
484 1 0.00000 20.40827 44.89820 
485 1 0.00000 22.44910 46.93903 
486 1 2.04083 20.40827 46.93903 
487 1 2.04083 22.44910 44.89820 
488 1 0.00000 20.40827 48.97986 
489 1 0.00000 22.44910 51.02069 
490 1 2.04083 20.40827 51.02069 
491 1 2.04083 22.44910 48.97986 
492 1 0.00000 20.40827 53.06151 
493 1 0.00000 22.44910 55.10234 
494 1 2.04083 20.40827 55.10234 
495 1 2.04083 22.44910 53.06151 
496 1 0.00000 20.40827 57.14317 
497 1 0.00000 22.44910 59.18400 
498 1 2.04083 20.40827 59.18400 
499 1 2.04083 22.44910 57.14317 
500 1 0.00000 20.40827 61.22482 
501 1 0.00000 22.44910 63.26565 
502 1 2.04083 20.40827 63.26565 
503 1 2.04083 22.44910 61.22482 
504 1 0.00000 20.40827 65.30648 
505 1 0.00000 22.44910 67.34731 
506 1 2.04083 20.40827 67.34731 
507 1 2.04083 22.44910 65.30648 
508 1 0.00000 20.40827 69.38813 
509 1 0.00000 22.44910 71.42896 
510 1 2.04083 20.40827 71.42896 
511 1 2.04083 22.44910 69.38813 
512 1 0.00000 20.40827 73.46979 
513 1 0.00000 22.44910 75.51062 
514 1 2.04083 20.40827 75.51062 
515 1 2.04083 22.44910 73.46979 
516 1 0.00000 20.40827 77.55144 
517 1 0.00000 22.44910 79.59227 
518 1 2.04083 20.40827 79.59227 
519 1 2.04083 22.44910 77.55144 
520 1 0.00000 20.40827 81.63310 
521 1 0.00000 22.44910 83.67393 
522 1 2.04083 20.40827 83.67393 
523 1 2.04083 22.44910 81.63310 
524 1 0.00000 20.40827 85.71475 
525 1 0.00000 22.44910 87.75558 
526 1 2.04083 20.40827 87.75558 
527 1 2.04083 22.44910 85.71475 
528 1 0.00000 24.48993 0.00000 
529 1 0.00000 26.53076 2.04083 
530 1 2.04083 24.48993 2.04083 
531 1 2.04083 26.53076 0.00000 
532 1 0.00000 24.48993 4.08165 
533 1 0.00000 26.53076 6.12248 
534 1 2.04083 24.48993 6.12248 
535 1 2.04083 26.53076 4.08165 
536 1 0.00000 24.48993 8.16331 
537 1 0.00000 26.53076 10.20414 
538 1 2.04083 24.48993 10.20414 
539 1 2.04083 26.53076 8.16331 
540 1 0.00000 24.48993 12.24496 
541 1 0.00000 26.53076 14.28579 
542 1 2.04083 24.48993 14.28579 
543 1 2.04083 26.53076 12.24496 
544 1 0.00000 24.48993 16.32662 
545 1 0.00000 26.53076 18.36745 
546 1 2.04083 24.48993 18.36745 
547 1 2.04083 26.53076 16.32662 
548 1 0.00000 24.48993 20.40827 
549 1 0.00000 26.53076 22.44910 
550 1 2.04083 24.48993 22.44910 
551 1 2.04083 26.53076 20.40827 
552 1 0.00000 24.48993 24.48993 
553 1 0.00000 26.53076 26.53076 
554 1 2.04083 24.48993 26.53076 
555 1 2.04083 26.53076 24.48993 
556 1 0.00000 24.48993 28.57158 
557 1 0.00000 26.53076 30.61241 
558 1 2.04083 24.48993 30.61241 
559 1 2.04083 26.53076 28.57158 
560 1 0.00000 24.48993 32.65324 
561 1 0.00000 26.53076 34.69407 
562 1 2.04083 24.48993 34.69407 
563 1 2.04083 26.53076 32.65324 
564 1 0.00000 24.48993 36.73489 
565 1 0.00000 26.53076 38.77572 
566 1 2.04083 24.48993 38.77572 
567 1 2.04083 26.53076 36.73489 
568 1 0.00000 24.48993 40.81655 
569 1 0.00000 26.53076 42.85738 
570 1 2.04083 24.48993 42.85738 
571 1 2.04083 26.53076 40.81655 
572 1 0.00000 24.48993 44.89820 
573 1 0.00000 26.53076 46.93903 
574 1 2.04083 24.48993 46.93903 
575 1 2.04083 26.53076 44.89820 
576 1 0.00000 24.48993 48.97986 
577 1 0.00000 26.53076 51.02069 
578 1 2.04083 24.48993 51.02069 
579 1 2.04083 26.53076 48.97986 
580 1 0.00000 24.48993 53.06151 
581 1 0.00000 26.53076 55.10234 
582 1 2.04083 24.48993 55.10234 
583 1 2.04083 26.53076 53.06151 
584 1 0.00000 24.48993 57.14317 
585 1 0.00000 26.53076 59.18400 
586 1 2.04083 24.48993 59.18400 
587 1 2.04083 26.53076 57.14317 
588 1 0.00000 24.48993 61.22482 
589 1 0.00000 26.53076 63.26565 
590 1 2.04083 24.48993 63.26565 
591 1 2.04083 26.53076 61.22482 
592 1 0.00000 24.48993 65.30648 
593 1 0.00000 26.53076 67.34731 
594 1 2.04083 24.48993 67.34731 
595 1 2.04083 26.53076 65.30648 
596 1 0.00000 24.48993 69.38813 
597 1 0.00000 26.53076 71.42896 
598 1 2.04083 24.48993 71.42896 
599 1 2.04083 26.53076 69.38813 
600 1 0.00000 24.48993 73.46979 
601 1 0.00000 26.53076 75.51062 
602 1 2.04083 24.48993 75.51062 
603 1 2.04083 26.53076 73.46979 
604 1 0.00000 24.48993 77.55144 
605 1 0.00000 26.53076 79.59227 
606 1 2.04083 24.48993 79.59227 
607 1 2.04083 26.53076 77.55144 
608 1 0.00000 24.48993 81.63310 
609 1 0.00000 26.53076 83.67393 
610 1 2.04083 24.48993 83.67393 
611 1 2.04083 26.53076 81.63310 
612 1 0.00000 24.48993 85.71475 
613 1 0.00000 26.53076 87.75558 
614 1 2.04083 24.48993 87.75558 
615 1 2.04083 26.53076 85.71475 
616 1 0.00000 28.57158 0.00000 
617 1 0.00000 30.61241 2.04083 
618 1 2.04083 28.57158 2.04083 
619 1 2.04083 30.61241 0.00000 
620 1 0.00000 28.57158 4.08165 
621 1 0.00000 30.61241 6.12248 
622 1 2.04083 28.57158 6.12248 
623 1 2.04083 30.61241 4.08165 
624 1 0.00000 28.57158 8.16331 
625 1 0.00000 30.61241 10.20414 
626 1 2.04083 28.57158 10.20414 
627 1 2.04083 30.61241 8.16331 
628 1 0.00000 28.57158 12.24496 
629 1 0.00000 30.61241 14.28579 
630 1 2.04083 28.57158 14.28579 
631 1 2.04083 30.61241 12.24496 
632 1 0.00000 28.57158 16.32662 
633 1 0.00000 30.61241 18.36745 
634 1 2.04083 28.57158 18.36745 
635 1 2.04083 30.61241 16.32662 
636 1 0.00000 28.57158 20.40827 
637 1 0.00000 30.61241 22.44910 
638 1 2.04083 28.57158 22.44910 
639 1 2.04083 30.61241 20.40827 
640 1 0.00000 28.57158 24.48993 
641 1 0.00000 30.61241 26.53076 
642 1 2.04083 28.57158 26.53076 
643 1 2.04083 30.61241 24.48993 
644 1 0.00000 28.57158 28.57158 
645 1 0.00000 30.61241 30.61241 
646 1 2.04083 28.57158 30.61241 
647 1 2.04083 30.61241 28.57158 
648 1 0.00000 28.57158 32.65324 
649 1 0.00000 30.61241 34.69407 
650 1 2.04083 28.57158 34.69407 
651 1 2.04083 30.61241 32.65324 
652 1 0.00000 28.57158 36.73489 
653 1 0.00000 30.61241 38.77572 
654 1 2.04083 28.57158 38.77572 
655 1 2.04083 30.61241 36.73489 
656 1 0.00000 28.57158 40.81655 
657 1 0.00000 30.61241 42.85738 
658 1 2.04083 28.57158 42.85738 
659 1 2.04083 30.61241 40.81655 
660 1 0.00000 28.57158 44.89820 
661 1 0.00000 30.61241 46.93903 
662 1 2.04083 28.57158 46.93903 
663 1 2.04083 30.61241 44.89820 
664 1 0.00000 28.57158 48.97986 
665 1 0.00000 30.61241 51.02069 
666 1 2.04083 28.57158 51.02069 
667 1 2.04083 30.61241 48.97986 
668 1 0.00000 28.57158 53.06151 
669 1 0.00000 30.61241 55.10234 
670 1 2.04083 28.57158 55.10234 
671 1 2.04083 30.61241 53.06151 
672 1 0.00000 28.57158 57.14317 
673 1 0.00000 30.61241 59.18400 
674 1 2.04083 28.57158 59.18400 
675 1 2.04083 30.61241 57.14317 
676 1 0.00000 28.57158 61.22482 
677 1 0.00000 30.61241 63.26565 
678 1 2.04083 28.57158 63.26565 
679 1 2.04083 30.61241 61.22482 
680 1 0.00000 28.57158 65.30648 
681 1 0.00000 30.61241 67.34731 
682 1 2.04083 28.57158 67.34731 
683 1 2.04083 30.61241 65.30648 
684 1 0.00000 28.57158 69.38813 
685 1 0.00000 30.61241 71.42896 
686 1 2.04083 28.57158 71.42896 
687 1 2.04083 30.61241 69.38813 
688 1 0.00000 28.57158 73.46979 
689 1 0.00000 30.61241 75.51062 
690 1 2.04083 28.57158 75.51062 
691 1 2.04083 30.61241 73.46979 
692 1 0.00000 28.57158 77.55144 
693 1 0.00000 30.61241 79.59227 
694 1 2.04083 28.57158 79.59227 
695 1 2.04083 30.61241 77.55144 
696 1 0.00000 28.57158 81.63310 
697 1 0.00000 30.61241 83.67393 
698 1 2.04083 28.57158 83.67393 
699 1 2.04083 30.61241 81.63310 
700 1 0.00000 28.57158 85.71475 
701 1 0.00000 30.61241 87.75558 
702 1 2.04083 28.57158 87.75558 
703 1 2.04083 30.61241 85.71475 
704 1 0.00000 32.65324 0.00000 
705 1 0.00000 34.69407 2.04083 
706 1 2.04083 32.65324 2.04083 
707 1 2.04083 34.69407 0.00000 
708 1 0.00000 32.65324 4.08165 
709 1 0.00000 34.69407 6.12248 
710 1 2.04083 32.65324 6.12248 
711 1 2.04083 34.69407 4.08165 
712 1 0.00000 32.65324 8.16331 
713 1 0.00000 34.69407 10.20414 
714 1 2.04083 32.65324 10.20414 
715 1 2.04083 34.69407 8.16331 
716 1 0.00000 32.65324 12.24496 
717 1 0.00000 34.69407 14.28579 
718 1 2.04083 32.65324 14.28579 
719 1 2.04083 34.69407 12.24496 
720 1 0.00000 32.65324 16.32662 
721 1 0.00000 34.69407 18.36745 
722 1 2.04083 32.65324 18.36745 
723 1 2.04083 34.69407 16.32662 
724 1 0.00000 32.65324 20.40827 
725 1 0.00000 34.69407 22.44910 
726 1 2.04083 32.65324 22.44910 
727 1 2.04083 34.69407 20.40827 
728 1 0.00000 32.65324 24.48993 
729 1 0.00000 34.69407 26.53076 
730 1 2.04083 32.65324 26.53076 
731 1 2.04083 34.69407 24.48993 
732 1 0.00000 32.65324 28.57158 
733 1 0.00000 34.69407 30.61241 
734 1 2.04083 32.65324 30.61241 
735 1 2.04083 34.69407 28.57158 
736 1 0.00000 32.65324 32.65324 
737 1 0.00000 34.69407 34.69407 
738 1 2.04083 32.65324 34.69407 
739 1 2.04083 34.69407 32.65324 
740 1 0.00000 32.65324 36.73489 
741 1 0.00000 34.69407 38.77572 
742 1 2.04083 32.65324 38.77572 
743 1 2.04083 34.69407 36.73489 
744 1 0.00000 32.65324 40.81655 
745 1 0.00000 34.69407 42.85738 
746 1 2.04083 32.65324 42.85738 
747 1 2.04083 34.69407 40.81655 
748 1 0.00000 32.65324 44.89820 
749 1 0.00000 34.69407 46.93903 
750 1 2.04083 32.65324 46.93903 
751 1 2.04083 34.69407 44.89820 
752 1 0.00000 32.65324 48.97986 
753 1 0.00000 34.69407 51.02069 
754 1 2.04083 32.65324 51.02069 
755 1 2.04083 34.69407 48.97986 
756 1 0.00000 32.65324 53.06151 
757 1 0.00000 34.69407 55.10234 
758 1 2.04083 32.65324 55.10234 
759 1 2.04083 34.69407 53.06151 
760 1 0.00000 32.65324 57.14317 
761 1 0.00000 34.69407 59.18400 
762 1 2.04083 32.65324 59.18400 
763 1 2.04083 34.69407 57.14317 
764 1 0.00000 32.65324 61.22482 
765 1 0.00000 34.69407 63.26565 
766 1 2.04083 32.65324 63.26565 
767 1 2.04083 34.69407 61.22482 
768 1 0.00000 32.65324 65.30648 
769 1 0.00000 34.69407 67.34731 
770 1 2.04083 32.65324 67.34731 
771 1 2.04083 34.69407 65.30648 
772 1 0.00000 32.65324 69.38813 
773 1 0.00000 34.69407 71.42896 
774 1 2.04083 32.65324 71.42896 
775 1 2.04083 34.69407 69.38813 
776 1 0.00000 32.65324 73.46979 
777 1 0.00000 34.69407 75.51062 
778 1 2.04083 32.65324 75.51062 
779 1 2.04083 34.69407 73.46979 
780 1 0.00000 32.65324 77.55144 
781 1 0.00000 34.69407 79.59227 
782 1 2.04083 32.65324 79.59227 
783 1 2.04083 34.69407 77.55144 
784 1 0.00000 32.65324 81.63310 
785 1 0.00000 34.69407 83.67393 
786 1 2.04083 32.65324 83.67393 
787 1 2.04083 34.69407 81.63310 
788 1 0.00000 32.65324 85.71475 
789 1 0.00000 34.69407 87.75558 
790 1 2.04083 32.65324 87.75558 
791 1 2.04083 34.69407 85.71475 
792 1 0.00000 36.73489 0.00000 
793 1 0.00000 38.77572 2.04083 
794 1 2.04083 36.73489 2.04083 
795 1 2.04083 38.77572 0.00000 
796 1 0.00000 36.73489 4.08165 
797 1 0.00000 38.77572 6.12248 
798 1 2.04083 36.73489 6.12248 
799 1 2.04083 38.77572 4.08165 
800 1 0.00000 36.73489 8.16331 
801 1 0.00000 38.77572 10.20414 
802 1 2.04083 36.73489 10.20414 
803 1 2.04083 38.77572 8.16331 
804 1 0.00000 36.73489 12.24496 
805 1 0.00000 38.77572 14.28579 
806 1 2.04083 36.73489 14.28579 
807 1 2.04083 38.77572 12.24496 
808 1 0.00000 36.73489 16.32662 
809 1 0.00000 38.77572 18.36745 
810 1 2.04083 36.73489 18.36745 
811 1 2.04083 38.77572 16.32662 
812 1 0.00000 36.73489 20.40827 
813 1 0.00000 38.77572 22.44910 
814 1 2.04083 36.73489 22.44910 
815 1 2.04083 38.77572 20.40827 
816 1 0.00000 36.73489 24.48993 
817 1 0.00000 38.77572 26.53076 
818 1 2.04083 36.73489 26.53076 
819 1 2.04083 38.77572 24.48993 
820 1 0.00000 36.73489 28.57158 
821 1 0.00000 38.77572 30.61241 
822 1 2.04083 36.73489 30.61241 
823 1 2.04083 38.77572 28.57158 
824 1 0.00000 36.73489 32.65324 
825 1 0.00000 38.77572 34.69407 
826 1 2.04083 36.73489 34.69407 
827 1 2.04083 38.77572 32.65324 
828 1 0.00000 36.73489 36.73489 
829 1 0.00000 38.77572 38.77572 
830 1 2.04083 36.73489 38.77572 
831 1 2.04083 38.77572 36.73489 
832 1 0.00000 36.73489 40.81655 
833 1 0.00000 38.77572 42.85738 
834 1 2.04083 36.73489 42.85738 
835 1 2.04083 38.77572 40.81655 
836 1 0.00000 36.73489 44.89820 
837 1 0.00000 38.77572 46.93903 
838 1 2.04083 36.73489 46.93903 
839 1 2.04083 38.77572 44.89820 
840 1 0.00000 36.73489 48.97986 
841 1 0.00000 38.77572 51.02069 
842 1 2.04083 36.73489 51.02069 
843 1 2.04083 38.77572 48.97986 
844 1 0.00000 36.73489 53.06151 
845 1 0.00000 38.77572 55.10234 
846 1 2.04083 36.73489 55.10234 
847 1 2.04083 38.77572 53.06151 
848 1 0.00000 36.73489 57.14317 
849 1 0.00000 38.77572 59.18400 
850 1 2.04083 36.73489 59.18400 
851 1 2.04083 38.77572 57.14317 
852 1 0.00000 36.73489 61.22482 
853 1 0.00000 38.77572 63.26565 
854 1 2.04083 36.73489 63.26565 
855 1 2.04083 38.77572 61.22482 
856 1 0.00000 36.73489 65.30648 
857 1 0.00000 38.77572 67.34731 
858 1 2.04083 36.73489 67.34731 
859 1 2.04083 38.77572 65.30648 
860 1 0.00000 36.73489 69.38813 
861 1 0.00000 38.77572 71.42896 
862 1 2.04083 36.73489 71.42896 
863 1 2.04083 38.77572 69.38813 
864 1 0.00000 36.73489 73.46979 
865 1 0.00000 38.77572 75.51062 
866 1 2.04083 36.73489 75.51062 
867 1 2.04083 38.77572 73.46979 
868 1 0.00000 36.73489 77.55144 
869 1 0.00000 38.77572 79.59227 
870 1 2.04083 36.73489 79.59227 
871 1 2.04083 38.77572 77.55144 
872 1 0.00000 36.73489 81.63310 
873 1 0.00000 38.77572 83.67393 
874 1 2.04083 36.73489 83.67393 
875 1 2.04083 38.77572 81.63310 
876 1 0.00000 36.73489 85.71475 
877 1 0.00000 38.77572 87.75558 
878 1 2.04083 36.73489 87.75558 
879 1 2.04083 38.77572 85.71475 
880 1 0.00000 40.81655 0.00000 
881 1 0.00000 42.85738 2.04083 
882 1 2.04083 40.81655 2.04083 
883 1 2.04083 42.85738 0.00000 
884 1 0.00000 40.81655 4.08165 
885 1 0.00000 42.85738 6.12248 
886 1 2.04083 40.81655 6.12248 
887 1 2.04083 42.85738 4.08165 
888 1 0.00000 40.81655 8.16331 
889 1 0.00000 42.85738 10.20414 
890 1 2.04083 40.81655 10.20414 
891 1 2.04083 42.85738 8.16331 
892 1 0.00000 40.81655 12.24496 
893 1 0.00000 42.85738 14.28579 
894 1 2.04083 40.81655 14.28579 
895 1 2.04083 42.85738 12.24496 
896 1 0.00000 40.81655 16.32662 
897 1 0.00000 42.85738 18.36745 
898 1 2.04083 40.81655 18.36745 
899 1 2.04083 42.85738 16.32662 
900 1 0.00000 40.81655 20.40827 
901 1 0.00000 42.85738 22.44910 
902 1 2.04083 40.81655 22.44910 
903 1 2.04083 42.85738 20.40827 
904 1 0.00000 40.81655 24.48993 
905 1 0.00000 42.85738 26.53076 
906 1 2.04083 40.81655 26.53076 
907 1 2.04083 42.85738 24.48993 
908 1 0.00000 40.81655 28.57158 
909 1 0.00000 42.85738 30.61241 
910 1 2.04083 40.81655 30.61241 
911 1 2.04083 42.85738 28.57158 
912 1 0.00000 40.81655 32.65324 
913 1 0.00000 42.85738 34.69407 
914 1 2.04083 40.81655 34.69407 
915 1 2.04083 42.85738 32.65324 
916 1 0.00000 40.81655 36.73489 