
     Program PWSCF v.7.4.1 starts on 21Oct2025 at 13:28:40 

     This program is part of the open-source Quantum ESPRESSO suite
     for quantum simulation of materials; please cite
         "P. Giannozzi et al., J. Phys.:Condens. Matter 21 395502 (2009);
         "P. Giannozzi et al., J. Phys.:Condens. Matter 29 465901 (2017);
         "P. Giannozzi et al., J. Chem. Phys. 152 154105 (2020);
          URL http://www.quantum-espresso.org", 
     in publications or presentations arising from this work. More details at
     http://www.quantum-espresso.org/quote

     Parallel version (MPI), running on     2 processors

     MPI processes distributed on     1 nodes
     612 MiB available memory on the printing compute node when the environment starts

     Waiting for input...
     Reading input from standard input
Warning: card &CELL ignored
Warning: card / ignored

     Current dimensions of program PWSCF are:
     Max number of different atomic species (ntypx) = 10
     Max number of k-points (npk) =  40000
     Max angular momentum in pseudopotentials (lmaxx) =  4
     file O.pz-rrkjus.UPF: wavefunction(s)  2S renormalized
     Message from routine setup:
     using ibrav=0 with symmetry is DISCOURAGED, use correct ibrav instead

     R & G space division:  proc/nbgrp/npool/nimage =       2
     Subspace diagonalization in iterative solution of the eigenvalue problem:
     a serial algorithm will be used


     Parallelization info
     --------------------
     sticks:   dense  smooth     PW     G-vecs:    dense   smooth      PW
     Min         516     254     74                12286     4354     709
     Max         517     255     75                12287     4355     710
     Sum        1033     509    149                24573     8709    1419

     Using Slab Decomposition



     bravais-lattice index     =            0
     lattice parameter (alat)  =       7.3227  a.u.
     unit-cell volume          =     392.6555 (a.u.)^3
     number of atoms/cell      =            5
     number of atomic types    =            3
     number of electrons       =        44.00
     number of Kohn-Sham states=           22
     kinetic-energy cutoff     =      30.0000  Ry
     charge density cutoff     =     240.0000  Ry
     scf convergence threshold =      1.0E-07
     mixing beta               =       0.7000
     number of iterations used =            8  plain     mixing
     energy convergence thresh.=      1.0E-04
     force convergence thresh. =      1.0E-03
     Exchange-correlation= SLA  PZ   NOGX NOGC
                           (   1   1   0   0   0   0   0)
     nstep                     =           50


     celldm(1)=   7.322689  celldm(2)=   0.000000  celldm(3)=   0.000000
     celldm(4)=   0.000000  celldm(5)=   0.000000  celldm(6)=   0.000000

     crystal axes: (cart. coord. in units of alat)
               a(1) = (   1.000000   0.000000   0.000000 )  
               a(2) = (   0.000000   1.000000   0.000000 )  
               a(3) = (   0.000000   0.000000   1.000000 )  

     reciprocal axes: (cart. coord. in units 2 pi/alat)
               b(1) = (  1.000000  0.000000  0.000000 )  
               b(2) = (  0.000000  1.000000  0.000000 )  
               b(3) = (  0.000000  0.000000  1.000000 )  


     PseudoPot. # 1 for O  read from file:
     /home/bond/Software/QE/qe-7.4.1/pseudo/O.pz-rrkjus.UPF
     MD5 check sum: 24fb942a68ef5d262e498166c462ef4a
     Pseudo is Ultrasoft, Zval =  6.0
     Generated by new atomic code, or converted to UPF format
     Using radial grid of 1269 points,  4 beta functions with: 
                l(1) =   0
                l(2) =   0
                l(3) =   1
                l(4) =   1
     Q(r) pseudized with 0 coefficients 


     PseudoPot. # 2 for Pb read from file:
     /home/bond/Software/QE/qe-7.4.1/pseudo/Pb.pz-d-van.UPF
     MD5 check sum: 4e1e5920686a026ae26139ac417581ff
     Pseudo is Ultrasoft, Zval = 14.0
     Generated by new atomic code, or converted to UPF format
     Using radial grid of  899 points,  6 beta functions with: 
                l(1) =   0
                l(2) =   0
                l(3) =   1
                l(4) =   1
                l(5) =   2
                l(6) =   2
     Q(r) pseudized with  8 coefficients,  rinner =    1.000   1.000   1.000
                                                       1.000   1.000

     PseudoPot. # 3 for Ti read from file:
     /home/bond/Software/QE/qe-7.4.1/pseudo/Ti.pz-sp-van_ak.UPF
     MD5 check sum: 545d0e6e05332b8871a8093f427cb0ca
     Pseudo is Ultrasoft, Zval = 12.0
     Generated by new atomic code, or converted to UPF format
     Using radial grid of  851 points,  6 beta functions with: 
                l(1) =   0
                l(2) =   0
                l(3) =   1
                l(4) =   1
                l(5) =   2
                l(6) =   2
     Q(r) pseudized with  8 coefficients,  rinner =    1.000   1.000   1.000
                                                       1.000   1.000

     atomic species   valence    mass     pseudopotential
     O                 6.00    15.99900     O ( 1.00)
     Pb               14.00   207.20000     Pb( 1.00)
     Ti               12.00    47.86700     Ti( 1.00)

      8 Sym. Ops. (no inversion) found



   Cartesian axes

     site n.     atom                  positions (alat units)
         1        Pb     tau(   1) = (   0.0000000   0.0000000   0.0000000  )
         2        Ti     tau(   2) = (   0.5000000   0.5000000   0.5225006  )
         3        O      tau(   3) = (   0.0000000   0.5000000   0.5000000  )
         4        O      tau(   4) = (   0.5000000   0.0000000   0.5000000  )
         5        O      tau(   5) = (   0.5000000   0.5000000   0.0000000  )

     number of k points=     6
                       cart. coord. in units 2pi/alat
        k(    1) = (   0.1250000   0.1250000   0.1250000), wk =   0.2500000
        k(    2) = (   0.1250000   0.1250000   0.3750000), wk =   0.2500000
        k(    3) = (   0.1250000   0.3750000   0.3750000), wk =   0.5000000
        k(    4) = (   0.3750000   0.3750000   0.3750000), wk =   0.2500000
        k(    5) = (   0.3750000  -0.1250000   0.1250000), wk =   0.5000000
        k(    6) = (   0.3750000  -0.3750000   0.1250000), wk =   0.2500000

     Dense  grid:    24573 G-vectors     FFT dimensions: (  40,  40,  40)

     Smooth grid:     8709 G-vectors     FFT dimensions: (  25,  25,  25)

     Estimated max dynamical RAM per process >      51.19 MB

     Estimated total dynamical RAM >     102.38 MB

     Initial potential from superposition of free atoms

     starting charge      42.9982, renormalised to      44.0000
     Starting wfcs are   31 randomized atomic wfcs

     total cpu time spent up to now is        1.8 secs

     Self-consistent Calculation

     iteration #  1     ecut=    30.00 Ry     beta= 0.70
     Davidson diagonalization with overlap
     ethr =  1.00E-02,  avg # of iterations =  2.0

     total cpu time spent up to now is        2.2 secs

     total energy              =    -332.61894261 Ry
     estimated scf accuracy    <       1.09652498 Ry

     iteration #  2     ecut=    30.00 Ry     beta= 0.70
     Davidson diagonalization with overlap
     ethr =  2.49E-03,  avg # of iterations =  6.5

     total cpu time spent up to now is        2.7 secs

     total energy              =    -332.38573497 Ry
     estimated scf accuracy    <       4.12335329 Ry

     iteration #  3     ecut=    30.00 Ry     beta= 0.70
     Davidson diagonalization with overlap
     ethr =  2.49E-03,  avg # of iterations =  5.2

     total cpu time spent up to now is        3.1 secs

     total energy              =    -333.15844128 Ry
     estimated scf accuracy    <       0.21709542 Ry

     iteration #  4     ecut=    30.00 Ry     beta= 0.70
     Davidson diagonalization with overlap
     ethr =  4.93E-04,  avg # of iterations =  2.0

     total cpu time spent up to now is        3.5 secs

     total energy              =    -333.15556046 Ry
     estimated scf accuracy    <       0.05906806 Ry

     iteration #  5     ecut=    30.00 Ry     beta= 0.70
     Davidson diagonalization with overlap
     ethr =  1.34E-04,  avg # of iterations =  4.8

     total cpu time spent up to now is        4.0 secs

     total energy              =    -333.18234168 Ry
     estimated scf accuracy    <       0.02294949 Ry

     iteration #  6     ecut=    30.00 Ry     beta= 0.70
     Davidson diagonalization with overlap
     ethr =  5.22E-05,  avg # of iterations =  2.3

     total cpu time spent up to now is        4.5 secs

     total energy              =    -333.18112743 Ry
     estimated scf accuracy    <       0.00793703 Ry

     iteration #  7     ecut=    30.00 Ry     beta= 0.70
     Davidson diagonalization with overlap
     ethr =  1.80E-05,  avg # of iterations =  4.2

     total cpu time spent up to now is        4.9 secs

     total energy              =    -333.18344733 Ry
     estimated scf accuracy    <       0.00023058 Ry

     iteration #  8     ecut=    30.00 Ry     beta= 0.70
     Davidson diagonalization with overlap
     ethr =  5.24E-07,  avg # of iterations =  4.5

     total cpu time spent up to now is        5.4 secs

     total energy              =    -333.18345768 Ry
     estimated scf accuracy    <       0.00034327 Ry

     iteration #  9     ecut=    30.00 Ry     beta= 0.70
     Davidson diagonalization with overlap
     ethr =  5.24E-07,  avg # of iterations =  1.5

     total cpu time spent up to now is        5.8 secs

     total energy              =    -333.18341305 Ry
     estimated scf accuracy    <       0.00018924 Ry

     iteration # 10     ecut=    30.00 Ry     beta= 0.70
     Davidson diagonalization with overlap
     ethr =  4.30E-07,  avg # of iterations =  3.5

     total cpu time spent up to now is        6.2 secs

     total energy              =    -333.18343716 Ry
     estimated scf accuracy    <       0.00001042 Ry

     iteration # 11     ecut=    30.00 Ry     beta= 0.70
     Davidson diagonalization with overlap
     ethr =  2.37E-08,  avg # of iterations =  6.5

     total cpu time spent up to now is        6.7 secs

     total energy              =    -333.18344514 Ry
     estimated scf accuracy    <       0.00001049 Ry

     iteration # 12     ecut=    30.00 Ry     beta= 0.70
     Davidson diagonalization with overlap
     ethr =  2.37E-08,  avg # of iterations =  1.0

     total cpu time spent up to now is        7.0 secs

     total energy              =    -333.18344298 Ry
     estimated scf accuracy    <       0.00000597 Ry

     iteration # 13     ecut=    30.00 Ry     beta= 0.70
     Davidson diagonalization with overlap
     ethr =  1.36E-08,  avg # of iterations =  4.3

     total cpu time spent up to now is        7.5 secs

     total energy              =    -333.18344473 Ry
     estimated scf accuracy    <       0.00000041 Ry

     iteration # 14     ecut=    30.00 Ry     beta= 0.70
     Davidson diagonalization with overlap
     ethr =  9.36E-10,  avg # of iterations =  2.0

     total cpu time spent up to now is        7.8 secs

     total energy              =    -333.18344472 Ry
     estimated scf accuracy    <       0.00000018 Ry

     iteration # 15     ecut=    30.00 Ry     beta= 0.70
     Davidson diagonalization with overlap
     ethr =  4.00E-10,  avg # of iterations =  4.7

     total cpu time spent up to now is        8.3 secs

     End of self-consistent calculation

          k = 0.1250 0.1250 0.1250 (  1090 PWs)   bands (ev):

   -44.6144 -21.2517 -21.2212 -21.2202  -6.3252  -5.2646  -5.2309  -3.9616
    -3.9583  -3.9456  -3.7782  -3.7744   4.6596   7.3068   7.3235   8.0923
     9.0953   9.1380   9.8386   9.8804  10.0169  10.1649

          k = 0.1250 0.1250 0.3750 (  1095 PWs)   bands (ev):

   -44.6131 -21.3099 -21.2190 -21.2180  -5.9000  -5.1081  -5.1041  -4.0226
    -3.9567  -3.9418  -3.8729  -3.7478   3.9112   6.8377   7.2968   7.8635
     8.4813   8.7032   9.4163   9.9363  10.1537  10.9019

          k = 0.1250 0.3750 0.3750 (  1087 PWs)   bands (ev):

   -44.6119 -21.3063 -21.2749 -21.2164  -5.6852  -5.0126  -4.9310  -3.9960
    -3.9515  -3.8978  -3.8074  -3.6508   3.5506   6.7444   6.9179   7.1989
     7.5089   8.7066   9.4312   9.5073  10.0555  10.7169

          k = 0.3750 0.3750 0.3750 (  1082 PWs)   bands (ev):

   -44.6106 -21.3038 -21.2725 -21.2723  -5.3019  -5.1378  -5.1128  -3.9080
    -3.9037  -3.6166  -3.5526  -3.5411   4.1731   5.9348   5.9630   6.7161
     7.0694   7.0893   7.9954  10.6634  10.6976  10.7662

          k = 0.3750-0.1250 0.1250 (  1095 PWs)   bands (ev):

   -44.6131 -21.2786 -21.2494 -21.2185  -5.9227  -5.1364  -5.0635  -4.0208
    -3.9545  -3.9426  -3.8771  -3.7445   3.9250   6.8687   7.3586   7.8602
     8.4557   8.7783   9.3556   9.9415  10.0810  10.8669

          k = 0.3750-0.3750 0.1250 (  1087 PWs)   bands (ev):

   -44.6119 -21.2755 -21.2745 -21.2473  -5.7287  -4.9873  -4.9140  -3.9922
    -3.9504  -3.8937  -3.8058  -3.6659   3.5631   6.8331   6.8707   7.1817
     7.4871   8.6885   9.4795   9.5018  10.0429  10.7596

     highest occupied level (ev):    10.9019

!    total energy              =    -333.18344475 Ry
     estimated scf accuracy    <          1.8E-09 Ry

     The total energy is the sum of the following terms:
     one-electron contribution =     -76.64247499 Ry
     hartree contribution      =      66.32074277 Ry
     xc contribution           =     -49.65605056 Ry
     ewald contribution        =    -273.20566198 Ry

     convergence has been achieved in  15 iterations

     Forces acting on atoms (cartesian axes, Ry/au):

     atom    1 type  2   force =     0.00000000    0.00000000    0.00981366
     atom    2 type  3   force =     0.00000000    0.00000000   -0.01623403
     atom    3 type  1   force =     0.00000000    0.00000000   -0.00014414
     atom    4 type  1   force =     0.00000000    0.00000000   -0.00014414
     atom    5 type  1   force =     0.00000000    0.00000000    0.00670866

     Total force =     0.006712     Total SCF correction =     0.000012


     Computing stress (Cartesian axis) and pressure

          total   stress  (Ry/bohr**3)                   (kbar)     P=       -9.91
  -0.00009348   0.00000000   0.00000000          -13.75        0.00        0.00
   0.00000000  -0.00009348   0.00000000            0.00      -13.75        0.00
   0.00000000   0.00000000  -0.00001514            0.00        0.00       -2.23


     BFGS Geometry Optimization
     Energy error            =      4.4E-05 Ry
     Gradient error          =      6.7E-03 Ry/Bohr

     number of scf cycles    =   1
     number of bfgs steps    =   0

     energy             new  =    -333.1834447499 Ry

     new trust radius        =       0.0067086631 bohr
     new conv_thr            =       0.0000001000 Ry


ATOMIC_POSITIONS (angstrom)
Pb               0.0000000000        0.0000000000        0.0000000000    0   0   0
Ti               1.9375000000        1.9375000000        2.0246900000    0   0   0
O                0.0000000000        1.9375000000        1.9374237218
O                1.9375000000        0.0000000000        1.9374237218
O                1.9375000000        1.9375000000        0.0035500716


     Message from routine punch:
     Nothing written, as per user request (disk_io='none')
     NEW-OLD atomic charge density approx. for the potential

     total cpu time spent up to now is        9.8 secs

     Self-consistent Calculation

     iteration #  1     ecut=    30.00 Ry     beta= 0.70
     Davidson diagonalization with overlap
     ethr =  1.00E-06,  avg # of iterations =  3.0

     Threshold (ethr) on eigenvalues was too large:
     Diagonalizing with lowered threshold

     Davidson diagonalization with overlap
     ethr =  1.22E-08,  avg # of iterations =  5.7

     total cpu time spent up to now is       10.6 secs

     total energy              =    -333.18348186 Ry
     estimated scf accuracy    <       0.00000815 Ry

     iteration #  2     ecut=    30.00 Ry     beta= 0.70
     Davidson diagonalization with overlap
     ethr =  1.85E-08,  avg # of iterations =  4.3

     total cpu time spent up to now is       11.1 secs

     total energy              =    -333.18348280 Ry
     estimated scf accuracy    <       0.00000384 Ry

     iteration #  3     ecut=    30.00 Ry     beta= 0.70
     Davidson diagonalization with overlap
     ethr =  8.73E-09,  avg # of iterations =  4.5

     total cpu time spent up to now is       11.5 secs

     total energy              =    -333.18348370 Ry
     estimated scf accuracy    <       0.00000162 Ry

     iteration #  4     ecut=    30.00 Ry     beta= 0.70
     Davidson diagonalization with overlap
     ethr =  3.68E-09,  avg # of iterations =  3.5

     total cpu time spent up to now is       11.9 secs

     End of self-consistent calculation

          k = 0.1250 0.1250 0.1250 (  1090 PWs)   bands (ev):

   -44.6185 -21.2532 -21.2253 -21.2243  -6.3253  -5.2632  -5.2317  -3.9609
    -3.9578  -3.9450  -3.7775  -3.7740   4.6602   7.3071   7.3228   8.0919
     9.0985   9.1399   9.8445   9.8812  10.0160  10.1652

          k = 0.1250 0.1250 0.3750 (  1095 PWs)   bands (ev):

   -44.6172 -21.3114 -21.2231 -21.2221  -5.9009  -5.1090  -5.1020  -4.0220
    -3.9560  -3.9412  -3.8725  -3.7471   3.9128   6.8380   7.2987   7.8619
     8.4817   8.7072   9.4162   9.9371  10.1526  10.9017

          k = 0.1250 0.3750 0.3750 (  1087 PWs)   bands (ev):

   -44.6159 -21.3078 -21.2790 -21.2205  -5.6860  -5.0111  -4.9311  -3.9953
    -3.9509  -3.8972  -3.8068  -3.6506   3.5516   6.7470   6.9163   7.1987
     7.5087   8.7058   9.4345   9.5069  10.0566  10.7185

          k = 0.3750 0.3750 0.3750 (  1082 PWs)   bands (ev):

   -44.6147 -21.3053 -21.2766 -21.2763  -5.3015  -5.1369  -5.1135  -3.9072
    -3.9032  -3.6159  -3.5518  -3.5410   4.1738   5.9366   5.9630   6.7156
     7.0694   7.0878   7.9964  10.6658  10.6985  10.7664

          k = 0.3750-0.1250 0.1250 (  1095 PWs)   bands (ev):

   -44.6172 -21.2826 -21.2510 -21.2226  -5.9222  -5.1355  -5.0643  -4.0203
    -3.9539  -3.9421  -3.8764  -3.7440   3.9257   6.8678   7.3590   7.8602
     8.4560   8.7783   9.3589   9.9426  10.0834  10.8683

          k = 0.3750-0.3750 0.1250 (  1087 PWs)   bands (ev):

   -44.6160 -21.2795 -21.2786 -21.2488  -5.7268  -4.9879  -4.9149  -3.9917
    -3.9498  -3.8933  -3.8053  -3.6647   3.5632   6.8324   6.8699   7.1839
     7.4897   8.6891   9.4802   9.5017  10.0435  10.7589

     highest occupied level (ev):    10.9017

!    total energy              =    -333.18348397 Ry
     estimated scf accuracy    <       0.00000003 Ry

     The total energy is the sum of the following terms:
     one-electron contribution =     -76.61428464 Ry
     hartree contribution      =      66.30525650 Ry
     xc contribution           =     -49.65497738 Ry
     ewald contribution        =    -273.21947846 Ry

     convergence has been achieved in   4 iterations

     Forces acting on atoms (cartesian axes, Ry/au):

     atom    1 type  2   force =     0.00000000    0.00000000    0.00957210
     atom    2 type  3   force =     0.00000000    0.00000000   -0.01547905
     atom    3 type  1   force =     0.00000000    0.00000000    0.00058551
     atom    4 type  1   force =     0.00000000    0.00000000    0.00058551
     atom    5 type  1   force =     0.00000000    0.00000000    0.00473592

     Total force =     0.004808     Total SCF correction =     0.000399


     Computing stress (Cartesian axis) and pressure

          total   stress  (Ry/bohr**3)                   (kbar)     P=      -10.67
  -0.00009640   0.00000000   0.00000000          -14.18        0.00        0.00
   0.00000000  -0.00009640   0.00000000            0.00      -14.18        0.00
   0.00000000   0.00000000  -0.00002486            0.00        0.00       -3.66

     Energy error            =      3.9E-05 Ry
     Gradient error          =      4.7E-03 Ry/Bohr

     number of scf cycles    =   2
     number of bfgs steps    =   1

     energy             old  =    -333.1834447499 Ry
     energy             new  =    -333.1834839743 Ry

     CASE: energy            _new < energy            _old

     new trust radius        =       0.0073795295 bohr
     new conv_thr            =       0.0000000010 Ry


ATOMIC_POSITIONS (angstrom)
Pb               0.0000000000        0.0000000000        0.0000000000    0   0   0
Ti               1.9375000000        1.9375000000        2.0246900000    0   0   0
O                0.0000000000        1.9375000000        1.9378552603
O                1.9375000000        0.0000000000        1.9378552603
O                1.9375000000        1.9375000000        0.0074551505


     Message from routine punch:
     Nothing written, as per user request (disk_io='none')
     NEW-OLD atomic charge density approx. for the potential

     total cpu time spent up to now is       13.4 secs

     Self-consistent Calculation

     iteration #  1     ecut=    30.00 Ry     beta= 0.70
     Davidson diagonalization with overlap
     ethr =  1.00E-06,  avg # of iterations =  3.3

     Threshold (ethr) on eigenvalues was too large:
     Diagonalizing with lowered threshold

     Davidson diagonalization with overlap
     ethr =  1.33E-08,  avg # of iterations =  6.3

     total cpu time spent up to now is       14.4 secs

     total energy              =    -333.18351056 Ry
     estimated scf accuracy    <       0.00000883 Ry

     iteration #  2     ecut=    30.00 Ry     beta= 0.70
     Davidson diagonalization with overlap
     ethr =  2.01E-08,  avg # of iterations =  3.8

     total cpu time spent up to now is       14.9 secs

     total energy              =    -333.18351146 Ry
     estimated scf accuracy    <       0.00000333 Ry

     iteration #  3     ecut=    30.00 Ry     beta= 0.70
     Davidson diagonalization with overlap
     ethr =  7.57E-09,  avg # of iterations =  4.8

     total cpu time spent up to now is       15.4 secs

     total energy              =    -333.18351223 Ry
     estimated scf accuracy    <       0.00000191 Ry

     iteration #  4     ecut=    30.00 Ry     beta= 0.70
     Davidson diagonalization with overlap
     ethr =  4.35E-09,  avg # of iterations =  3.7

     total cpu time spent up to now is       15.8 secs

     total energy              =    -333.18351258 Ry
     estimated scf accuracy    <       0.00000004 Ry

     iteration #  5     ecut=    30.00 Ry     beta= 0.70
     Davidson diagonalization with overlap
     ethr =  8.32E-11,  avg # of iterations =  6.2

     total cpu time spent up to now is       16.3 secs

     total energy              =    -333.18351261 Ry
     estimated scf accuracy    <       0.00000006 Ry

     iteration #  6     ecut=    30.00 Ry     beta= 0.70
     Davidson diagonalization with overlap
     ethr =  8.32E-11,  avg # of iterations =  4.3

     total cpu time spent up to now is       16.7 secs

     total energy              =    -333.18351262 Ry
     estimated scf accuracy    <       0.00000001 Ry

     iteration #  7     ecut=    30.00 Ry     beta= 0.70
     Davidson diagonalization with overlap
     ethr =  3.24E-11,  avg # of iterations =  4.3

     total cpu time spent up to now is       17.1 secs

     End of self-consistent calculation

          k = 0.1250 0.1250 0.1250 (  1090 PWs)   bands (ev):

   -44.6219 -21.2541 -21.2288 -21.2278  -6.3259  -5.2625  -5.2329  -3.9600
    -3.9571  -3.9442  -3.7767  -3.7734   4.6608   7.3071   7.3216   8.0912
     9.1018   9.1413   9.8508   9.8817  10.0144  10.1645

          k = 0.1250 0.1250 0.3750 (  1095 PWs)   bands (ev):

   -44.6207 -21.3123 -21.2266 -21.2257  -5.9023  -5.1104  -5.1006  -4.0210
    -3.9551  -3.9405  -3.8719  -3.7462   3.9144   6.8378   7.3005   7.8602
     8.4816   8.7108   9.4157   9.9376  10.1510  10.9011

          k = 0.1250 0.3750 0.3750 (  1087 PWs)   bands (ev):

   -44.6194 -21.3087 -21.2825 -21.2240  -5.6871  -5.0103  -4.9316  -3.9944
    -3.9500  -3.8964  -3.8061  -3.6502   3.5526   6.7496   6.9138   7.1981
     7.5082   8.7046   9.4373   9.5062  10.0573  10.7196

          k = 0.3750 0.3750 0.3750 (  1082 PWs)   bands (ev):

   -44.6181 -21.3062 -21.2801 -21.2799  -5.3015  -5.1364  -5.1144  -3.9062
    -3.9025  -3.6152  -3.5509  -3.5409   4.1744   5.9381   5.9627   6.7150
     7.0687   7.0858   7.9972  10.6677  10.6988  10.7662

          k = 0.3750-0.1250 0.1250 (  1095 PWs)   bands (ev):

   -44.6207 -21.2861 -21.2519 -21.2262  -5.9224  -5.1352  -5.0654  -4.0195
    -3.9531  -3.9412  -3.8756  -3.7434   3.9263   6.8666   7.3590   7.8597
     8.4559   8.7778   9.3620   9.9432  10.0856  10.8694

          k = 0.3750-0.3750 0.1250 (  1087 PWs)   bands (ev):

   -44.6194 -21.2830 -21.2821 -21.2497  -5.7257  -4.9889  -4.9162  -3.9910
    -3.9490  -3.8927  -3.8047  -3.6635   3.5633   6.8314   6.8688   7.1858
     7.4918   8.6888   9.4802   9.5011  10.0439  10.7576

     highest occupied level (ev):    10.9011

!    total energy              =    -333.18351262 Ry
     estimated scf accuracy    <          5.5E-10 Ry

     The total energy is the sum of the following terms:
     one-electron contribution =     -76.58872923 Ry
     hartree contribution      =      66.29202016 Ry
     xc contribution           =     -49.65408603 Ry
     ewald contribution        =    -273.23271752 Ry

     convergence has been achieved in   7 iterations

     Forces acting on atoms (cartesian axes, Ry/au):

     atom    1 type  2   force =     0.00000000    0.00000000    0.01000212
     atom    2 type  3   force =     0.00000000    0.00000000   -0.01503980
     atom    3 type  1   force =     0.00000000    0.00000000    0.00116911
     atom    4 type  1   force =     0.00000000    0.00000000    0.00116911
     atom    5 type  1   force =     0.00000000    0.00000000    0.00269946

     Total force =     0.003166     Total SCF correction =     0.000008


     Computing stress (Cartesian axis) and pressure

          total   stress  (Ry/bohr**3)                   (kbar)     P=      -11.08
  -0.00009659   0.00000000   0.00000000          -14.21        0.00        0.00
   0.00000000  -0.00009659   0.00000000            0.00      -14.21        0.00
   0.00000000   0.00000000  -0.00003284            0.00        0.00       -4.83

     Energy error            =      2.9E-05 Ry
     Gradient error          =      2.7E-03 Ry/Bohr

     number of scf cycles    =   3
     number of bfgs steps    =   2

     energy             old  =    -333.1834839743 Ry
     energy             new  =    -333.1835126185 Ry

     CASE: energy            _new < energy            _old

     new trust radius        =       0.0110692942 bohr
     new conv_thr            =       0.0000000010 Ry


ATOMIC_POSITIONS (angstrom)
Pb               0.0000000000        0.0000000000        0.0000000000    0   0   0
Ti               1.9375000000        1.9375000000        2.0246900000    0   0   0
O                0.0000000000        1.9375000000        1.9394014708
O                1.9375000000        0.0000000000        1.9394014708
O                1.9375000000        1.9375000000        0.0133127687


     Message from routine punch:
     Nothing written, as per user request (disk_io='none')
     NEW-OLD atomic charge density approx. for the potential

     total cpu time spent up to now is       18.6 secs

     Self-consistent Calculation

     iteration #  1     ecut=    30.00 Ry     beta= 0.70
     Davidson diagonalization with overlap
     ethr =  1.00E-06,  avg # of iterations =  4.0

     Threshold (ethr) on eigenvalues was too large:
     Diagonalizing with lowered threshold

     Davidson diagonalization with overlap
     ethr =  4.11E-08,  avg # of iterations =  4.8

     total cpu time spent up to now is       19.3 secs

     total energy              =    -333.18353148 Ry
     estimated scf accuracy    <       0.00002153 Ry

     iteration #  2     ecut=    30.00 Ry     beta= 0.70
     Davidson diagonalization with overlap
     ethr =  4.89E-08,  avg # of iterations =  4.3

     total cpu time spent up to now is       19.8 secs

     total energy              =    -333.18353207 Ry
     estimated scf accuracy    <       0.00001150 Ry

     iteration #  3     ecut=    30.00 Ry     beta= 0.70
     Davidson diagonalization with overlap
     ethr =  2.61E-08,  avg # of iterations =  4.5

     total cpu time spent up to now is       20.3 secs

     total energy              =    -333.18353489 Ry
     estimated scf accuracy    <       0.00000514 Ry

     iteration #  4     ecut=    30.00 Ry     beta= 0.70
     Davidson diagonalization with overlap
     ethr =  1.17E-08,  avg # of iterations =  3.5

     total cpu time spent up to now is       20.7 secs

     total energy              =    -333.18353565 Ry
     estimated scf accuracy    <       0.00000014 Ry

     iteration #  5     ecut=    30.00 Ry     beta= 0.70
     Davidson diagonalization with overlap
     ethr =  3.07E-10,  avg # of iterations =  6.8

     total cpu time spent up to now is       21.2 secs

     total energy              =    -333.18353582 Ry
     estimated scf accuracy    <       0.00000037 Ry

     iteration #  6     ecut=    30.00 Ry     beta= 0.70
     Davidson diagonalization with overlap
     ethr =  3.07E-10,  avg # of iterations =  3.0

     total cpu time spent up to now is       21.6 secs

     total energy              =    -333.18353579 Ry
     estimated scf accuracy    <       0.00000015 Ry

     iteration #  7     ecut=    30.00 Ry     beta= 0.70
     Davidson diagonalization with overlap
     ethr =  3.07E-10,  avg # of iterations =  4.5

     total cpu time spent up to now is       22.0 secs

     total energy              =    -333.18353582 Ry
     estimated scf accuracy    <          1.6E-09 Ry

     iteration #  8     ecut=    30.00 Ry     beta= 0.70
     Davidson diagonalization with overlap
     ethr =  3.56E-12,  avg # of iterations =  6.0

     total cpu time spent up to now is       22.5 secs

     total energy              =    -333.18353582 Ry
     estimated scf accuracy    <          6.4E-09 Ry

     iteration #  9     ecut=    30.00 Ry     beta= 0.70
     Davidson diagonalization with overlap
     ethr =  3.56E-12,  avg # of iterations =  5.2

     total cpu time spent up to now is       22.9 secs

     End of self-consistent calculation

          k = 0.1250 0.1250 0.1250 (  1090 PWs)   bands (ev):

   -44.6276 -21.2561 -21.2345 -21.2335  -6.3264  -5.2609  -5.2347  -3.9588
    -3.9562  -3.9433  -3.7757  -3.7727   4.6617   7.3075   7.3203   8.0907
     9.1071   9.1436   9.8616   9.8834  10.0120  10.1630

          k = 0.1250 0.1250 0.3750 (  1095 PWs)   bands (ev):

   -44.6263 -21.3142 -21.2323 -21.2314  -5.9040  -5.1124  -5.0979  -4.0199
    -3.9539  -3.9396  -3.8712  -3.7451   3.9169   6.8381   7.3041   7.8582
     8.4810   8.7166   9.4150   9.9391  10.1487  10.9000

          k = 0.1250 0.3750 0.3750 (  1087 PWs)   bands (ev):

   -44.6251 -21.3107 -21.2882 -21.2297  -5.6888  -5.0086  -4.9319  -3.9932
    -3.9490  -3.8953  -3.8051  -3.6498   3.5541   6.7545   6.9096   7.1974
     7.5076   8.7029   9.4415   9.5053  10.0584  10.7220

          k = 0.3750 0.3750 0.3750 (  1082 PWs)   bands (ev):

   -44.6238 -21.3081 -21.2858 -21.2855  -5.3012  -5.1352  -5.1157  -3.9050
    -3.9017  -3.6141  -3.5498  -3.5407   4.1753   5.9405   5.9622   6.7147
     7.0672   7.0822   7.9983  10.6711  10.6995  10.7663

          k = 0.3750-0.1250 0.1250 (  1095 PWs)   bands (ev):

   -44.6263 -21.2918 -21.2539 -21.2319  -5.9221  -5.1344  -5.0669  -4.0185
    -3.9521  -3.9403  -3.8745  -3.7427   3.9272   6.8646   7.3589   7.8594
     8.4563   8.7768   9.3669   9.9447  10.0895  10.8712

          k = 0.3750-0.3750 0.1250 (  1087 PWs)   bands (ev):

   -44.6251 -21.2887 -21.2878 -21.2517  -5.7232  -4.9902  -4.9179  -3.9902
    -3.9480  -3.8920  -3.8039  -3.6619   3.5633   6.8299   6.8669   7.1884
     7.4948   8.6889   9.4802   9.5007  10.0450  10.7561

     highest occupied level (ev):    10.9000

!    total energy              =    -333.18353582 Ry
     estimated scf accuracy    <          5.4E-12 Ry

     The total energy is the sum of the following terms:
     one-electron contribution =     -76.55596733 Ry
     hartree contribution      =      66.27434782 Ry
     xc contribution           =     -49.65278743 Ry
     ewald contribution        =    -273.24912889 Ry

     convergence has been achieved in   9 iterations

     Forces acting on atoms (cartesian axes, Ry/au):

     atom    1 type  2   force =     0.00000000    0.00000000    0.01002123
     atom    2 type  3   force =     0.00000000    0.00000000   -0.01418068
     atom    3 type  1   force =     0.00000000    0.00000000    0.00202597
     atom    4 type  1   force =     0.00000000    0.00000000    0.00202597
     atom    5 type  1   force =     0.00000000    0.00000000    0.00010750

     Total force =     0.002867     Total SCF correction =     0.000001


     Computing stress (Cartesian axis) and pressure

          total   stress  (Ry/bohr**3)                   (kbar)     P=      -11.82
  -0.00009803   0.00000000   0.00000000          -14.42        0.00        0.00
   0.00000000  -0.00009803   0.00000000            0.00      -14.42        0.00
   0.00000000   0.00000000  -0.00004491            0.00        0.00       -6.61

     Energy error            =      2.3E-05 Ry
     Gradient error          =      2.0E-03 Ry/Bohr

     number of scf cycles    =   4
     number of bfgs steps    =   3

     energy             old  =    -333.1835126185 Ry
     energy             new  =    -333.1835358214 Ry

     CASE: energy            _new < energy            _old

     new trust radius        =       0.0079886666 bohr
     new conv_thr            =       0.0000000010 Ry


ATOMIC_POSITIONS (angstrom)
Pb               0.0000000000        0.0000000000        0.0000000000    0   0   0
Ti               1.9375000000        1.9375000000        2.0246900000    0   0   0
O                0.0000000000        1.9375000000        1.9417720059
O                1.9375000000        0.0000000000        1.9417720059
O                1.9375000000        1.9375000000        0.0175401890


     Message from routine punch:
     Nothing written, as per user request (disk_io='none')
     NEW-OLD atomic charge density approx. for the potential

     total cpu time spent up to now is       24.4 secs

     Self-consistent Calculation

     iteration #  1     ecut=    30.00 Ry     beta= 0.70
     Davidson diagonalization with overlap
     ethr =  1.00E-06,  avg # of iterations =  3.8

     Threshold (ethr) on eigenvalues was too large:
     Diagonalizing with lowered threshold

     Davidson diagonalization with overlap
     ethr =  2.21E-08,  avg # of iterations =  5.0

     total cpu time spent up to now is       25.1 secs

     total energy              =    -333.18354958 Ry
     estimated scf accuracy    <       0.00001220 Ry

     iteration #  2     ecut=    30.00 Ry     beta= 0.70
     Davidson diagonalization with overlap
     ethr =  2.77E-08,  avg # of iterations =  4.5

     total cpu time spent up to now is       25.6 secs

     total energy              =    -333.18354915 Ry
     estimated scf accuracy    <       0.00000550 Ry

     iteration #  3     ecut=    30.00 Ry     beta= 0.70
     Davidson diagonalization with overlap
     ethr =  1.25E-08,  avg # of iterations =  4.7

     total cpu time spent up to now is       26.0 secs

     total energy              =    -333.18355067 Ry
     estimated scf accuracy    <       0.00000333 Ry

     iteration #  4     ecut=    30.00 Ry     beta= 0.70
     Davidson diagonalization with overlap
     ethr =  7.57E-09,  avg # of iterations =  3.3

     total cpu time spent up to now is       26.4 secs

     total energy              =    -333.18355103 Ry
     estimated scf accuracy    <       0.00000018 Ry

     iteration #  5     ecut=    30.00 Ry     beta= 0.70
     Davidson diagonalization with overlap
     ethr =  4.18E-10,  avg # of iterations =  5.8

     total cpu time spent up to now is       26.9 secs

     total energy              =    -333.18355119 Ry
     estimated scf accuracy    <       0.00000028 Ry

     iteration #  6     ecut=    30.00 Ry     beta= 0.70
     Davidson diagonalization with overlap
     ethr =  4.18E-10,  avg # of iterations =  2.0

     total cpu time spent up to now is       27.3 secs

     total energy              =    -333.18355116 Ry
     estimated scf accuracy    <       0.00000013 Ry

     iteration #  7     ecut=    30.00 Ry     beta= 0.70
     Davidson diagonalization with overlap
     ethr =  3.07E-10,  avg # of iterations =  3.8

     total cpu time spent up to now is       27.7 secs

     total energy              =    -333.18355119 Ry
     estimated scf accuracy    <          7.6E-09 Ry

     iteration #  8     ecut=    30.00 Ry     beta= 0.70
     Davidson diagonalization with overlap
     ethr =  1.72E-11,  avg # of iterations =  4.8

     total cpu time spent up to now is       28.1 secs

     total energy              =    -333.18355119 Ry
     estimated scf accuracy    <          3.1E-09 Ry

     iteration #  9     ecut=    30.00 Ry     beta= 0.70
     Davidson diagonalization with overlap
     ethr =  7.12E-12,  avg # of iterations =  3.7

     total cpu time spent up to now is       28.5 secs

     End of self-consistent calculation

          k = 0.1250 0.1250 0.1250 (  1090 PWs)   bands (ev):

   -44.6312 -21.2573 -21.2383 -21.2372  -6.3266  -5.2598  -5.2362  -3.9581
    -3.9557  -3.9427  -3.7750  -3.7724   4.6623   7.3080   7.3194   8.0908
     9.1111   9.1450   9.8706   9.8851  10.0097  10.1609

          k = 0.1250 0.1250 0.3750 (  1095 PWs)   bands (ev):

   -44.6300 -21.3154 -21.2361 -21.2351  -5.9054  -5.1141  -5.0959  -4.0192
    -3.9532  -3.9391  -3.8709  -3.7444   3.9188   6.8386   7.3076   7.8574
     8.4797   8.7206   9.4142   9.9406  10.1468  10.8988

          k = 0.1250 0.3750 0.3750 (  1087 PWs)   bands (ev):

   -44.6287 -21.3118 -21.2919 -21.2335  -5.6901  -5.0074  -4.9321  -3.9926
    -3.9483  -3.8947  -3.8045  -3.6496   3.5550   6.7587   6.9057   7.1970
     7.5072   8.7015   9.4441   9.5045  10.0589  10.7238

          k = 0.3750 0.3750 0.3750 (  1082 PWs)   bands (ev):

   -44.6274 -21.3093 -21.2895 -21.2893  -5.3009  -5.1344  -5.1167  -3.9043
    -3.9012  -3.6134  -3.5490  -3.5407   4.1756   5.9421   5.9615   6.7150
     7.0654   7.0787   7.9990  10.6737  10.6999  10.7665

          k = 0.3750-0.1250 0.1250 (  1095 PWs)   bands (ev):

   -44.6300 -21.2956 -21.2551 -21.2356  -5.9218  -5.1341  -5.0680  -4.0180
    -3.9515  -3.9397  -3.8738  -3.7422   3.9278   6.8630   7.3585   7.8592
     8.4567   8.7755   9.3703   9.9459  10.0928  10.8722

          k = 0.3750-0.3750 0.1250 (  1087 PWs)   bands (ev):

   -44.6287 -21.2924 -21.2915 -21.2529  -5.7213  -4.9912  -4.9191  -3.9898
    -3.9475  -3.8916  -3.8034  -3.6608   3.5631   6.8289   6.8653   7.1897
     7.4961   8.6888   9.4797   9.5005  10.0460  10.7548

     highest occupied level (ev):    10.8988

!    total energy              =    -333.18355119 Ry
     estimated scf accuracy    <          2.8E-10 Ry

     The total energy is the sum of the following terms:
     one-electron contribution =     -76.53961841 Ry
     hartree contribution      =      66.26522199 Ry
     xc contribution           =     -49.65201780 Ry
     ewald contribution        =    -273.25713696 Ry

     convergence has been achieved in   9 iterations

     Forces acting on atoms (cartesian axes, Ry/au):

     atom    1 type  2   force =     0.00000000    0.00000000    0.00992731
     atom    2 type  3   force =     0.00000000    0.00000000   -0.01361106
     atom    3 type  1   force =     0.00000000    0.00000000    0.00246665
     atom    4 type  1   force =     0.00000000    0.00000000    0.00246665
     atom    5 type  1   force =     0.00000000    0.00000000   -0.00124956

     Total force =     0.003705     Total SCF correction =     0.000005


     Computing stress (Cartesian axis) and pressure

          total   stress  (Ry/bohr**3)                   (kbar)     P=      -12.30
  -0.00009896   0.00000000   0.00000000          -14.56        0.00        0.00
   0.00000000  -0.00009896   0.00000000            0.00      -14.56        0.00
   0.00000000   0.00000000  -0.00005299            0.00        0.00       -7.80

     Energy error            =      1.5E-05 Ry
     Gradient error          =      2.5E-03 Ry/Bohr

     number of scf cycles    =   5
     number of bfgs steps    =   4

     energy             old  =    -333.1835358214 Ry
     energy             new  =    -333.1835511895 Ry

     CASE: energy            _new < energy            _old

     new trust radius        =       0.0087875333 bohr
     new conv_thr            =       0.0000000010 Ry


ATOMIC_POSITIONS (angstrom)
Pb               0.0000000000        0.0000000000        0.0000000000    0   0   0
Ti               1.9375000000        1.9375000000        2.0246900000    0   0   0
O                0.0000000000        1.9375000000        1.9455471519
O                1.9375000000        0.0000000000        1.9455471519
O                1.9375000000        1.9375000000        0.0221903514


     Message from routine punch:
     Nothing written, as per user request (disk_io='none')
     NEW-OLD atomic charge density approx. for the potential

     total cpu time spent up to now is       30.0 secs

     Self-consistent Calculation

     iteration #  1     ecut=    30.00 Ry     beta= 0.70
     Davidson diagonalization with overlap
     ethr =  1.00E-06,  avg # of iterations =  4.2

     Threshold (ethr) on eigenvalues was too large:
     Diagonalizing with lowered threshold

     Davidson diagonalization with overlap
     ethr =  3.42E-08,  avg # of iterations =  4.7

     total cpu time spent up to now is       30.9 secs

     total energy              =    -333.18357296 Ry
     estimated scf accuracy    <       0.00001725 Ry

     iteration #  2     ecut=    30.00 Ry     beta= 0.70
     Davidson diagonalization with overlap
     ethr =  3.92E-08,  avg # of iterations =  3.7

     total cpu time spent up to now is       31.4 secs

     total energy              =    -333.18357356 Ry
     estimated scf accuracy    <       0.00000369 Ry

     iteration #  3     ecut=    30.00 Ry     beta= 0.70
     Davidson diagonalization with overlap
     ethr =  8.39E-09,  avg # of iterations =  5.0

     total cpu time spent up to now is       31.9 secs

     total energy              =    -333.18357504 Ry
     estimated scf accuracy    <       0.00000374 Ry

     iteration #  4     ecut=    30.00 Ry     beta= 0.70
     Davidson diagonalization with overlap
     ethr =  8.39E-09,  avg # of iterations =  3.3

     total cpu time spent up to now is       32.3 secs

     total energy              =    -333.18357574 Ry
     estimated scf accuracy    <       0.00000006 Ry

     iteration #  5     ecut=    30.00 Ry     beta= 0.70
     Davidson diagonalization with overlap
     ethr =  1.33E-10,  avg # of iterations =  6.3

     total cpu time spent up to now is       32.7 secs

     total energy              =    -333.18357503 Ry
     estimated scf accuracy    <       0.00000019 Ry

     iteration #  6     ecut=    30.00 Ry     beta= 0.70
     Davidson diagonalization with overlap
     ethr =  1.33E-10,  avg # of iterations =  4.3

     total cpu time spent up to now is       33.2 secs

     total energy              =    -333.18357505 Ry
     estimated scf accuracy    <       0.00000002 Ry

     iteration #  7     ecut=    30.00 Ry     beta= 0.70
     Davidson diagonalization with overlap
     ethr =  4.47E-11,  avg # of iterations =  4.2

     total cpu time spent up to now is       33.6 secs

     End of self-consistent calculation

          k = 0.1250 0.1250 0.1250 (  1090 PWs)   bands (ev):

   -44.6348 -21.2584 -21.2420 -21.2410  -6.3269  -5.2588  -5.2382  -3.9574
    -3.9552  -3.9422  -3.7745  -3.7720   4.6630   7.3087   7.3186   8.0912
     9.1156   9.1464   9.8816   9.8874  10.0068  10.1574

          k = 0.1250 0.1250 0.3750 (  1095 PWs)   bands (ev):

   -44.6336 -21.3164 -21.2398 -21.2389  -5.9070  -5.1163  -5.0937  -4.0185
    -3.9525  -3.9386  -3.8705  -3.7438   3.9208   6.8393   7.3122   7.8569
     8.4774   8.7248   9.4129   9.9426  10.1443  10.8971

          k = 0.1250 0.3750 0.3750 (  1087 PWs)   bands (ev):

   -44.6323 -21.3129 -21.2957 -21.2372  -5.6916  -5.0061  -4.9323  -3.9919
    -3.9477  -3.8940  -3.8040  -3.6496   3.5559   6.7640   6.9007   7.1964
     7.5066   8.6998   9.4466   9.5035  10.0593  10.7258

          k = 0.3750 0.3750 0.3750 (  1082 PWs)   bands (ev):

   -44.6310 -21.3104 -21.2933 -21.2930  -5.3006  -5.1334  -5.1179  -3.9036
    -3.9008  -3.6127  -3.5482  -3.5407   4.1758   5.9438   5.9606   6.7158
     7.0628   7.0741   7.9996  10.6765  10.7000  10.7668

          k = 0.3750-0.1250 0.1250 (  1095 PWs)   bands (ev):

   -44.6336 -21.2993 -21.2562 -21.2394  -5.9214  -5.1338  -5.0694  -4.0175
    -3.9510  -3.9392  -3.8731  -3.7418   3.9284   6.8610   7.3577   7.8592
     8.4573   8.7735   9.3739   9.9473  10.0965  10.8733

          k = 0.3750-0.3750 0.1250 (  1087 PWs)   bands (ev):

   -44.6323 -21.2962 -21.2953 -21.2540  -5.7190  -4.9924  -4.9207  -3.9894
    -3.9469  -3.8912  -3.8029  -3.6596   3.5627   6.8277   6.8633   7.1907
     7.4971   8.6887   9.4787   9.5002  10.0473  10.7532

     highest occupied level (ev):    10.8971

!    total energy              =    -333.18357505 Ry
     estimated scf accuracy    <          8.6E-10 Ry

     The total energy is the sum of the following terms:
     one-electron contribution =     -76.52856373 Ry
     hartree contribution      =      66.25876813 Ry
     xc contribution           =     -49.65132745 Ry
     ewald contribution        =    -273.26245200 Ry

     convergence has been achieved in   7 iterations

     Forces acting on atoms (cartesian axes, Ry/au):

     atom    1 type  2   force =     0.00000000    0.00000000    0.00973559
     atom    2 type  3   force =     0.00000000    0.00000000   -0.01303250
     atom    3 type  1   force =     0.00000000    0.00000000    0.00278592
     atom    4 type  1   force =     0.00000000    0.00000000    0.00278592
     atom    5 type  1   force =     0.00000000    0.00000000   -0.00227494

     Total force =     0.004550     Total SCF correction =     0.000024


     Computing stress (Cartesian axis) and pressure

          total   stress  (Ry/bohr**3)                   (kbar)     P=      -12.66
  -0.00009897   0.00000000   0.00000000          -14.56        0.00        0.00
   0.00000000  -0.00009897   0.00000000            0.00      -14.56        0.00
   0.00000000   0.00000000  -0.00006031            0.00        0.00       -8.87

     Energy error            =      2.4E-05 Ry
     Gradient error          =      2.8E-03 Ry/Bohr

     number of scf cycles    =   6
     number of bfgs steps    =   5

     energy             old  =    -333.1835511895 Ry
     energy             new  =    -333.1835750530 Ry

     CASE: energy            _new < energy            _old

     new trust radius        =       0.0131813000 bohr
     new conv_thr            =       0.0000000010 Ry


ATOMIC_POSITIONS (angstrom)
Pb               0.0000000000        0.0000000000        0.0000000000    0   0   0
Ti               1.9375000000        1.9375000000        2.0246900000    0   0   0
O                0.0000000000        1.9375000000        1.9523816176
O                1.9375000000        0.0000000000        1.9523816176
O                1.9375000000        1.9375000000        0.0291655949


     Message from routine punch:
     Nothing written, as per user request (disk_io='none')
     NEW-OLD atomic charge density approx. for the potential

     total cpu time spent up to now is       35.2 secs

     Self-consistent Calculation

     iteration #  1     ecut=    30.00 Ry     beta= 0.70
     Davidson diagonalization with overlap
     ethr =  1.00E-06,  avg # of iterations =  5.3

     Threshold (ethr) on eigenvalues was too large:
     Diagonalizing with lowered threshold

     Davidson diagonalization with overlap
     ethr =  9.85E-08,  avg # of iterations =  2.5

     total cpu time spent up to now is       36.0 secs

     total energy              =    -333.18360759 Ry
     estimated scf accuracy    <       0.00004423 Ry

     iteration #  2     ecut=    30.00 Ry     beta= 0.70
     Davidson diagonalization with overlap
     ethr =  1.01E-07,  avg # of iterations =  3.2

     total cpu time spent up to now is       36.4 secs

     total energy              =    -333.18361221 Ry
     estimated scf accuracy    <       0.00000642 Ry

     iteration #  3     ecut=    30.00 Ry     beta= 0.70
     Davidson diagonalization with overlap
     ethr =  1.46E-08,  avg # of iterations =  5.2

     total cpu time spent up to now is       36.8 secs

     total energy              =    -333.18361313 Ry
     estimated scf accuracy    <       0.00000688 Ry

     iteration #  4     ecut=    30.00 Ry     beta= 0.70
     Davidson diagonalization with overlap
     ethr =  1.46E-08,  avg # of iterations =  4.2

     total cpu time spent up to now is       37.2 secs

     total energy              =    -333.18361464 Ry
     estimated scf accuracy    <       0.00000025 Ry

     iteration #  5     ecut=    30.00 Ry     beta= 0.70
     Davidson diagonalization with overlap
     ethr =  5.71E-10,  avg # of iterations =  4.7

     total cpu time spent up to now is       37.7 secs

     total energy              =    -333.18361468 Ry
     estimated scf accuracy    <       0.00000022 Ry

     iteration #  6     ecut=    30.00 Ry     beta= 0.70
     Davidson diagonalization with overlap
     ethr =  5.10E-10,  avg # of iterations =  4.2

     total cpu time spent up to now is       38.1 secs

     total energy              =    -333.18361471 Ry
     estimated scf accuracy    <       0.00000001 Ry

     iteration #  7     ecut=    30.00 Ry     beta= 0.70
     Davidson diagonalization with overlap
     ethr =  2.79E-11,  avg # of iterations =  5.5

     total cpu time spent up to now is       38.6 secs

     total energy              =    -333.18361472 Ry
     estimated scf accuracy    <          9.2E-09 Ry

     iteration #  8     ecut=    30.00 Ry     beta= 0.70
     Davidson diagonalization with overlap
     ethr =  2.10E-11,  avg # of iterations =  2.0

     total cpu time spent up to now is       39.0 secs

     total energy              =    -333.18361472 Ry
     estimated scf accuracy    <          3.6E-09 Ry

     iteration #  9     ecut=    30.00 Ry     beta= 0.70
     Davidson diagonalization with overlap
     ethr =  8.16E-12,  avg # of iterations =  4.5

     total cpu time spent up to now is       39.4 secs

     End of self-consistent calculation

          k = 0.1250 0.1250 0.1250 (  1090 PWs)   bands (ev):

   -44.6402 -21.2603 -21.2476 -21.2466  -6.3274  -5.2575  -5.2413  -3.9564
    -3.9545  -3.9413  -3.7736  -3.7713   4.6639   7.3097   7.3174   8.0921
     9.1220   9.1481   9.8911   9.8985  10.0019  10.1509

          k = 0.1250 0.1250 0.3750 (  1095 PWs)   bands (ev):

   -44.6390 -21.3183 -21.2455 -21.2445  -5.9095  -5.1199  -5.0906  -4.0174
    -3.9514  -3.9378  -3.8698  -3.7427   3.9239   6.8403   7.3192   7.8565
     8.4734   8.7307   9.4106   9.9457  10.1404  10.8944

          k = 0.1250 0.3750 0.3750 (  1087 PWs)   bands (ev):

   -44.6377 -21.3148 -21.3013 -21.2429  -5.6941  -5.0046  -4.9326  -3.9908
    -3.9468  -3.8930  -3.8030  -3.6493   3.5573   6.7723   6.8922   7.1955
     7.5056   8.6971   9.4495   9.5020  10.0598  10.7287

          k = 0.3750 0.3750 0.3750 (  1082 PWs)   bands (ev):

   -44.6364 -21.3122 -21.2989 -21.2987  -5.3002  -5.1320  -5.1198  -3.9024
    -3.9001  -3.6116  -3.5470  -3.5405   4.1759   5.9461   5.9590   6.7170
     7.0581   7.0667   8.0006  10.6804  10.6997  10.7673

          k = 0.3750-0.1250 0.1250 (  1095 PWs)   bands (ev):

   -44.6390 -21.3050 -21.2581 -21.2450  -5.9210  -5.1339  -5.0715  -4.0166
    -3.9501  -3.9383  -3.8718  -3.7411   3.9291   6.8577   7.3562   7.8591
     8.4582   8.7702   9.3788   9.9492  10.1020  10.8747

          k = 0.3750-0.3750 0.1250 (  1087 PWs)   bands (ev):

   -44.6377 -21.3018 -21.3009 -21.2559  -5.7157  -4.9943  -4.9231  -3.9887
    -3.9459  -3.8903  -3.8020  -3.6579   3.5619   6.8258   6.8599   7.1915
     7.4978   8.6883   9.4767   9.4997  10.0494  10.7507

     highest occupied level (ev):    10.8944

!    total energy              =    -333.18361472 Ry
     estimated scf accuracy    <          7.5E-10 Ry

     The total energy is the sum of the following terms:
     one-electron contribution =     -76.52007725 Ry
     hartree contribution      =      66.25323785 Ry
     xc contribution           =     -49.65052705 Ry
     ewald contribution        =    -273.26624827 Ry

     convergence has been achieved in   9 iterations

     Forces acting on atoms (cartesian axes, Ry/au):

     atom    1 type  2   force =     0.00000000    0.00000000    0.00932105
     atom    2 type  3   force =     0.00000000    0.00000000   -0.01227099
     atom    3 type  1   force =     0.00000000    0.00000000    0.00310577
     atom    4 type  1   force =     0.00000000    0.00000000    0.00310577
     atom    5 type  1   force =     0.00000000    0.00000000   -0.00326160

     Total force =     0.005471     Total SCF correction =     0.000008


     Computing stress (Cartesian axis) and pressure

          total   stress  (Ry/bohr**3)                   (kbar)     P=      -13.08
  -0.00009839   0.00000000   0.00000000          -14.47        0.00        0.00
   0.00000000  -0.00009839   0.00000000            0.00      -14.47        0.00
   0.00000000   0.00000000  -0.00006994            0.00        0.00      -10.29

     Energy error            =      4.0E-05 Ry
     Gradient error          =      3.3E-03 Ry/Bohr

     number of scf cycles    =   7
     number of bfgs steps    =   6

     energy             old  =    -333.1835750530 Ry
     energy             new  =    -333.1836147208 Ry

     CASE: energy            _new < energy            _old

     new trust radius        =       0.0197719499 bohr
     new conv_thr            =       0.0000000010 Ry


ATOMIC_POSITIONS (angstrom)
Pb               0.0000000000        0.0000000000        0.0000000000    0   0   0
Ti               1.9375000000        1.9375000000        2.0246900000    0   0   0
O                0.0000000000        1.9375000000        1.9628444829
O                1.9375000000        0.0000000000        1.9628444829
O                1.9375000000        1.9375000000        0.0388662147


     Message from routine punch:
     Nothing written, as per user request (disk_io='none')
     NEW-OLD atomic charge density approx. for the potential

     total cpu time spent up to now is       40.9 secs

     Self-consistent Calculation

     iteration #  1     ecut=    30.00 Ry     beta= 0.70
     Davidson diagonalization with overlap
     ethr =  1.00E-06,  avg # of iterations =  5.5

     total cpu time spent up to now is       41.4 secs

     total energy              =    -333.18366201 Ry
     estimated scf accuracy    <       0.00009138 Ry

     iteration #  2     ecut=    30.00 Ry     beta= 0.70
     Davidson diagonalization with overlap
     ethr =  2.08E-07,  avg # of iterations =  2.8

     total cpu time spent up to now is       41.8 secs

     total energy              =    -333.18367500 Ry
     estimated scf accuracy    <       0.00000744 Ry

     iteration #  3     ecut=    30.00 Ry     beta= 0.70
     Davidson diagonalization with overlap
     ethr =  1.69E-08,  avg # of iterations =  5.2

     total cpu time spent up to now is       42.3 secs

     total energy              =    -333.18367620 Ry
     estimated scf accuracy    <       0.00000534 Ry

     iteration #  4     ecut=    30.00 Ry     beta= 0.70
     Davidson diagonalization with overlap
     ethr =  1.21E-08,  avg # of iterations =  4.7

     total cpu time spent up to now is       42.7 secs

     total energy              =    -333.18367756 Ry
     estimated scf accuracy    <       0.00000121 Ry

     iteration #  5     ecut=    30.00 Ry     beta= 0.70
     Davidson diagonalization with overlap
     ethr =  2.75E-09,  avg # of iterations =  4.0

     total cpu time spent up to now is       43.1 secs

     total energy              =    -333.18367776 Ry
     estimated scf accuracy    <       0.00000010 Ry

     iteration #  6     ecut=    30.00 Ry     beta= 0.70
     Davidson diagonalization with overlap
     ethr =  2.37E-10,  avg # of iterations =  5.2

     total cpu time spent up to now is       43.6 secs

     total energy              =    -333.18367780 Ry
     estimated scf accuracy    <       0.00000005 Ry

     iteration #  7     ecut=    30.00 Ry     beta= 0.70
     Davidson diagonalization with overlap
     ethr =  1.14E-10,  avg # of iterations =  3.3

     total cpu time spent up to now is       44.0 secs

     total energy              =    -333.18367780 Ry
     estimated scf accuracy    <          9.9E-09 Ry

     iteration #  8     ecut=    30.00 Ry     beta= 0.70
     Davidson diagonalization with overlap
     ethr =  2.25E-11,  avg # of iterations =  5.0

     total cpu time spent up to now is       44.5 secs

     total energy              =    -333.18367781 Ry
     estimated scf accuracy    <          7.4E-09 Ry

     iteration #  9     ecut=    30.00 Ry     beta= 0.70
     Davidson diagonalization with overlap
     ethr =  1.69E-11,  avg # of iterations =  1.5

     total cpu time spent up to now is       44.9 secs

     total energy              =    -333.18367780 Ry
     estimated scf accuracy    <          3.4E-09 Ry

     iteration # 10     ecut=    30.00 Ry     beta= 0.70
     Davidson diagonalization with overlap
     ethr =  7.73E-12,  avg # of iterations =  3.8

     total cpu time spent up to now is       45.3 secs

     End of self-consistent calculation

          k = 0.1250 0.1250 0.1250 (  1090 PWs)   bands (ev):

   -44.6464 -21.2624 -21.2541 -21.2532  -6.3283  -5.2558  -5.2460  -3.9549
    -3.9534  -3.9401  -3.7725  -3.7702   4.6651   7.3108   7.3160   8.0934
     9.1301   9.1497   9.8958   9.9216   9.9951  10.1409

          k = 0.1250 0.1250 0.3750 (  1095 PWs)   bands (ev):

   -44.6452 -21.3203 -21.2520 -21.2511  -5.9133  -5.1253  -5.0864  -4.0158
    -3.9499  -3.9367  -3.8686  -3.7414   3.9279   6.8419   7.3285   7.8560
     8.4677   8.7381   9.4070   9.9497  10.1347  10.8908

          k = 0.1250 0.3750 0.3750 (  1087 PWs)   bands (ev):

   -44.6439 -21.3167 -21.3079 -21.2494  -5.6978  -5.0032  -4.9329  -3.9894
    -3.9454  -3.8915  -3.8016  -3.6486   3.5591   6.7839   6.8799   7.1941
     7.5042   8.6933   9.4520   9.5005  10.0604  10.7323

          k = 0.3750 0.3750 0.3750 (  1082 PWs)   bands (ev):

   -44.6426 -21.3142 -21.3055 -21.3053  -5.3000  -5.1303  -5.1227  -3.9009
    -3.8990  -3.6102  -3.5452  -3.5400   4.1755   5.9490   5.9564   6.7187
     7.0519   7.0568   8.0025  10.6853  10.6983  10.7680

          k = 0.3750-0.1250 0.1250 (  1095 PWs)   bands (ev):

   -44.6452 -21.3115 -21.2602 -21.2515  -5.9206  -5.1342  -5.0746  -4.0155
    -3.9489  -3.9370  -3.8697  -3.7399   3.9300   6.8531   7.3539   7.8590
     8.4592   8.7654   9.3846   9.9514  10.1089  10.8766

          k = 0.3750-0.3750 0.1250 (  1087 PWs)   bands (ev):

   -44.6439 -21.3084 -21.3075 -21.2580  -5.7113  -4.9975  -4.9270  -3.9878
    -3.9445  -3.8889  -3.8005  -3.6555   3.5606   6.8231   6.8553   7.1921
     7.4983   8.6880   9.4738   9.4989  10.0524  10.7469

     highest occupied level (ev):    10.8908

!    total energy              =    -333.18367781 Ry
     estimated scf accuracy    <          3.3E-11 Ry

     The total energy is the sum of the following terms:
     one-electron contribution =     -76.51805993 Ry
     hartree contribution      =      66.25052990 Ry
     xc contribution           =     -49.64971440 Ry
     ewald contribution        =    -273.26643338 Ry

     convergence has been achieved in  10 iterations

     Forces acting on atoms (cartesian axes, Ry/au):

     atom    1 type  2   force =     0.00000000    0.00000000    0.00868516
     atom    2 type  3   force =     0.00000000    0.00000000   -0.01141888
     atom    3 type  1   force =     0.00000000    0.00000000    0.00342422
     atom    4 type  1   force =     0.00000000    0.00000000    0.00342422
     atom    5 type  1   force =     0.00000000    0.00000000   -0.00411473

     Total force =     0.006355     Total SCF correction =     0.000002


     Computing stress (Cartesian axis) and pressure

          total   stress  (Ry/bohr**3)                   (kbar)     P=      -13.59
  -0.00009786   0.00000000   0.00000000          -14.40        0.00        0.00
   0.00000000  -0.00009786   0.00000000            0.00      -14.40        0.00
   0.00000000   0.00000000  -0.00008138            0.00        0.00      -11.97

     Energy error            =      6.3E-05 Ry
     Gradient error          =      4.1E-03 Ry/Bohr

     number of scf cycles    =   8
     number of bfgs steps    =   7

     energy             old  =    -333.1836147208 Ry
     energy             new  =    -333.1836778055 Ry

     CASE: energy            _new < energy            _old

     new trust radius        =       0.0296579249 bohr
     new conv_thr            =       0.0000000010 Ry


ATOMIC_POSITIONS (angstrom)
Pb               0.0000000000        0.0000000000        0.0000000000    0   0   0
Ti               1.9375000000        1.9375000000        2.0246900000    0   0   0
O                0.0000000000        1.9375000000        1.9785387809
O                1.9375000000        0.0000000000        1.9785387809
O                1.9375000000        1.9375000000        0.0527917890


     Message from routine punch:
     Nothing written, as per user request (disk_io='none')
     NEW-OLD atomic charge density approx. for the potential

     total cpu time spent up to now is       46.9 secs

     Self-consistent Calculation

     iteration #  1     ecut=    30.00 Ry     beta= 0.70
     Davidson diagonalization with overlap
     ethr =  1.00E-06,  avg # of iterations =  7.0

     total cpu time spent up to now is       47.5 secs

     total energy              =    -333.18374582 Ry
     estimated scf accuracy    <       0.00019742 Ry

     iteration #  2     ecut=    30.00 Ry     beta= 0.70
     Davidson diagonalization with overlap
     ethr =  4.49E-07,  avg # of iterations =  2.3

     total cpu time spent up to now is       47.9 secs

     total energy              =    -333.18377103 Ry
     estimated scf accuracy    <       0.00001210 Ry

     iteration #  3     ecut=    30.00 Ry     beta= 0.70
     Davidson diagonalization with overlap
     ethr =  2.75E-08,  avg # of iterations =  4.3

     total cpu time spent up to now is       48.4 secs

     total energy              =    -333.18377294 Ry
     estimated scf accuracy    <       0.00000608 Ry

     iteration #  4     ecut=    30.00 Ry     beta= 0.70
     Davidson diagonalization with overlap
     ethr =  1.38E-08,  avg # of iterations =  4.8

     total cpu time spent up to now is       48.9 secs

     total energy              =    -333.18377362 Ry
     estimated scf accuracy    <       0.00000227 Ry

     iteration #  5     ecut=    30.00 Ry     beta= 0.70
     Davidson diagonalization with overlap
     ethr =  5.17E-09,  avg # of iterations =  4.0

     total cpu time spent up to now is       49.3 secs

     total energy              =    -333.18377408 Ry
     estimated scf accuracy    <       0.00000006 Ry

     iteration #  6     ecut=    30.00 Ry     beta= 0.70
     Davidson diagonalization with overlap
     ethr =  1.41E-10,  avg # of iterations =  6.3

     total cpu time spent up to now is       49.8 secs

     total energy              =    -333.18377411 Ry
     estimated scf accuracy    <       0.00000015 Ry

     iteration #  7     ecut=    30.00 Ry     beta= 0.70
     Davidson diagonalization with overlap
     ethr =  1.41E-10,  avg # of iterations =  4.2

     total cpu time spent up to now is       50.2 secs

     total energy              =    -333.18377412 Ry
     estimated scf accuracy    <       0.00000001 Ry

     iteration #  8     ecut=    30.00 Ry     beta= 0.70
     Davidson diagonalization with overlap
     ethr =  2.84E-11,  avg # of iterations =  4.3

     total cpu time spent up to now is       50.6 secs

     End of self-consistent calculation

          k = 0.1250 0.1250 0.1250 (  1090 PWs)   bands (ev):

   -44.6541 -21.2654 -21.2622 -21.2613  -6.3301  -5.2537  -5.2528  -3.9527
    -3.9516  -3.9380  -3.7707  -3.7678   4.6667   7.3117   7.3143   8.0953
     9.1394   9.1509   9.9012   9.9511   9.9859  10.1263

          k = 0.1250 0.1250 0.3750 (  1095 PWs)   bands (ev):

   -44.6529 -21.3231 -21.2602 -21.2592  -5.9189  -5.1331  -5.0810  -4.0131
    -3.9475  -3.9347  -3.8661  -3.7393   3.9330   6.8441   7.3391   7.8545
     8.4605   8.7468   9.4016   9.9541  10.1267  10.8864

          k = 0.1250 0.3750 0.3750 (  1087 PWs)   bands (ev):

   -44.6516 -21.3196 -21.3160 -21.2576  -5.7033  -5.0029  -4.9331  -3.9869
    -3.9433  -3.8891  -3.7992  -3.6469   3.5616   6.7994   6.8625   7.1918
     7.5021   8.6879   9.4526   9.4997  10.0615  10.7364

          k = 0.3750 0.3750 0.3750 (  1082 PWs)   bands (ev):

   -44.6503 -21.3171 -21.3137 -21.3134  -5.3005  -5.1279  -5.1272  -3.8984
    -3.8972  -3.6082  -3.5424  -3.5386   4.1742   5.9525   5.9526   6.7202
     7.0441   7.0442   8.0064  10.6908  10.6952  10.7690

          k = 0.3750-0.1250 0.1250 (  1095 PWs)   bands (ev):

   -44.6529 -21.3197 -21.2631 -21.2596  -5.9206  -5.1354  -5.0794  -4.0136
    -3.9468  -3.9348  -3.8661  -3.7377   3.9313   6.8469   7.3503   7.8588
     8.4597   8.7592   9.3911   9.9533  10.1164  10.8792

          k = 0.3750-0.3750 0.1250 (  1087 PWs)   bands (ev):

   -44.6516 -21.3166 -21.3157 -21.2609  -5.7058  -5.0027  -4.9332  -3.9861
    -3.9418  -3.8859  -3.7975  -3.6522   3.5582   6.8192   6.8491   7.1923
     7.4990   8.6878   9.4698   9.4976  10.0567  10.7412

     highest occupied level (ev):    10.8864

!    total energy              =    -333.18377413 Ry
     estimated scf accuracy    <          5.4E-10 Ry

     The total energy is the sum of the following terms:
     one-electron contribution =     -76.52990652 Ry
     hartree contribution      =      66.25450217 Ry
     xc contribution           =     -49.64905781 Ry
     ewald contribution        =    -273.25931197 Ry

     convergence has been achieved in   8 iterations

     Forces acting on atoms (cartesian axes, Ry/au):

     atom    1 type  2   force =     0.00000000    0.00000000    0.00772701
     atom    2 type  3   force =     0.00000000    0.00000000   -0.01056676
     atom    3 type  1   force =     0.00000000    0.00000000    0.00381317
     atom    4 type  1   force =     0.00000000    0.00000000    0.00381317
     atom    5 type  1   force =     0.00000000    0.00000000   -0.00478658

     Total force =     0.007211     Total SCF correction =     0.000001


     Computing stress (Cartesian axis) and pressure

          total   stress  (Ry/bohr**3)                   (kbar)     P=      -13.92
  -0.00009575   0.00000000   0.00000000          -14.08        0.00        0.00
   0.00000000  -0.00009575   0.00000000            0.00      -14.08        0.00
   0.00000000   0.00000000  -0.00009239            0.00        0.00      -13.59

     Energy error            =      9.6E-05 Ry
     Gradient error          =      4.8E-03 Ry/Bohr

     number of scf cycles    =   9
     number of bfgs steps    =   8

     energy             old  =    -333.1836778055 Ry
     energy             new  =    -333.1837741266 Ry

     CASE: energy            _new < energy            _old


     WARNING: bfgs curvature condition failed, Theta= 0.409
     new trust radius        =       0.0444868874 bohr
     new conv_thr            =       0.0000000010 Ry


ATOMIC_POSITIONS (angstrom)
Pb               0.0000000000        0.0000000000        0.0000000000    0   0   0
Ti               1.9375000000        1.9375000000        2.0246900000    0   0   0
O                0.0000000000        1.9375000000        2.0020802279
O                1.9375000000        0.0000000000        2.0020802279
O                1.9375000000        1.9375000000        0.0739163617


     Message from routine punch:
     Nothing written, as per user request (disk_io='none')
     NEW-OLD atomic charge density approx. for the potential

     total cpu time spent up to now is       52.2 secs

     Self-consistent Calculation

     iteration #  1     ecut=    30.00 Ry     beta= 0.70
     Davidson diagonalization with overlap
     ethr =  1.00E-06,  avg # of iterations =  8.3

     total cpu time spent up to now is       52.7 secs

     total energy              =    -333.18387395 Ry
     estimated scf accuracy    <       0.00044314 Ry

     iteration #  2     ecut=    30.00 Ry     beta= 0.70
     Davidson diagonalization with overlap
     ethr =  1.01E-06,  avg # of iterations =  2.2

     total cpu time spent up to now is       53.1 secs

     total energy              =    -333.18392869 Ry
     estimated scf accuracy    <       0.00002275 Ry

     iteration #  3     ecut=    30.00 Ry     beta= 0.70
     Davidson diagonalization with overlap
     ethr =  5.17E-08,  avg # of iterations =  4.5

     total cpu time spent up to now is       53.5 secs

     total energy              =    -333.18393206 Ry
     estimated scf accuracy    <       0.00001193 Ry

     iteration #  4     ecut=    30.00 Ry     beta= 0.70
     Davidson diagonalization with overlap
     ethr =  2.71E-08,  avg # of iterations =  4.7

     total cpu time spent up to now is       54.0 secs

     total energy              =    -333.18393493 Ry
     estimated scf accuracy    <       0.00000389 Ry

     iteration #  5     ecut=    30.00 Ry     beta= 0.70
     Davidson diagonalization with overlap
     ethr =  8.84E-09,  avg # of iterations =  4.2

     total cpu time spent up to now is       54.4 secs

     total energy              =    -333.18393574 Ry
     estimated scf accuracy    <       0.00000016 Ry

     iteration #  6     ecut=    30.00 Ry     beta= 0.70
     Davidson diagonalization with overlap
     ethr =  3.69E-10,  avg # of iterations =  4.7

     total cpu time spent up to now is       54.8 secs

     total energy              =    -333.18393579 Ry
     estimated scf accuracy    <       0.00000017 Ry

     iteration #  7     ecut=    30.00 Ry     beta= 0.70
     Davidson diagonalization with overlap
     ethr =  3.69E-10,  avg # of iterations =  3.0

     total cpu time spent up to now is       55.2 secs

     total energy              =    -333.18393579 Ry
     estimated scf accuracy    <       0.00000003 Ry

     iteration #  8     ecut=    30.00 Ry     beta= 0.70
     Davidson diagonalization with overlap
     ethr =  6.49E-11,  avg # of iterations =  4.8

     total cpu time spent up to now is       55.7 secs

     total energy              =    -333.18393581 Ry
     estimated scf accuracy    <       0.00000003 Ry

     iteration #  9     ecut=    30.00 Ry     beta= 0.70
     Davidson diagonalization with overlap
     ethr =  6.49E-11,  avg # of iterations =  1.5

     total cpu time spent up to now is       56.0 secs

     total energy              =    -333.18393580 Ry
     estimated scf accuracy    <       0.00000001 Ry

     iteration # 10     ecut=    30.00 Ry     beta= 0.70
     Davidson diagonalization with overlap
     ethr =  3.23E-11,  avg # of iterations =  4.2

     total cpu time spent up to now is       56.4 secs

     End of self-consistent calculation

          k = 0.1250 0.1250 0.1250 (  1090 PWs)   bands (ev):

   -44.6618 -21.2709 -21.2696 -21.2682  -6.3337  -5.2629  -5.2513  -3.9490
    -3.9484  -3.9344  -3.7678  -3.7625   4.6686   7.3109   7.3124   8.0977
     9.1478   9.1502   9.9048   9.9748   9.9780  10.1126

          k = 0.1250 0.1250 0.3750 (  1095 PWs)   bands (ev):

   -44.6606 -21.3262 -21.2684 -21.2675  -5.9277  -5.1447  -5.0743  -4.0084
    -3.9434  -3.9311  -3.8608  -3.7359   3.9390   6.8470   7.3480   7.8504
     8.4531   8.7553   9.3935   9.9573  10.1154  10.8823

          k = 0.1250 0.3750 0.3750 (  1087 PWs)   bands (ev):

   -44.6593 -21.3245 -21.3225 -21.2658  -5.7115  -5.0058  -4.9330  -3.9828
    -3.9395  -3.8849  -3.7949  -3.6427   3.5654   6.8149   6.8418   7.1881
     7.4989   8.6804   9.4486   9.5002  10.0640  10.7398

          k = 0.3750 0.3750 0.3750 (  1082 PWs)   bands (ev):

   -44.6580 -21.3221 -21.3218 -21.3201  -5.3030  -5.1349  -5.1252  -3.8943
    -3.8938  -3.6051  -3.5377  -3.5350   4.1709   5.9469   5.9564   6.7201
     7.0307   7.0359   8.0147  10.6885  10.6954  10.7696

          k = 0.3750-0.1250 0.1250 (  1095 PWs)   bands (ev):

   -44.6606 -21.3280 -21.2681 -21.2661  -5.9221  -5.1386  -5.0870  -4.0102
    -3.9432  -3.9310  -3.8594  -3.7334   3.9328   6.8388   7.3449   7.8580
     8.4583   8.7522   9.3965   9.9536  10.1218  10.8833

          k = 0.3750-0.3750 0.1250 (  1087 PWs)   bands (ev):

   -44.6593 -21.3249 -21.3240 -21.2641  -5.6996  -5.0116  -4.9441  -3.9829
    -3.9369  -3.8798  -3.7913  -3.6475   3.5539   6.8133   6.8414   7.1921
     7.5005   8.6881   9.4649   9.4952  10.0629  10.7323

     highest occupied level (ev):    10.8833

!    total energy              =    -333.18393581 Ry
     estimated scf accuracy    <          9.9E-11 Ry

     The total energy is the sum of the following terms:
     one-electron contribution =     -76.57263042 Ry
     hartree contribution      =      66.27377602 Ry
     xc contribution           =     -49.64907515 Ry
     ewald contribution        =    -273.23600625 Ry

     convergence has been achieved in  10 iterations

     Forces acting on atoms (cartesian axes, Ry/au):

     atom    1 type  2   force =     0.00000000    0.00000000    0.00639723
     atom    2 type  3   force =     0.00000000    0.00000000   -0.00988123
     atom    3 type  1   force =     0.00000000    0.00000000    0.00445902
     atom    4 type  1   force =     0.00000000    0.00000000    0.00445902
     atom    5 type  1   force =     0.00000000    0.00000000   -0.00543405

     Total force =     0.008324     Total SCF correction =     0.000003


     Computing stress (Cartesian axis) and pressure

          total   stress  (Ry/bohr**3)                   (kbar)     P=      -13.99
  -0.00009255   0.00000000   0.00000000          -13.61        0.00        0.00
   0.00000000  -0.00009255   0.00000000            0.00      -13.61        0.00
   0.00000000   0.00000000  -0.00010022            0.00        0.00      -14.74

     Energy error            =      1.6E-04 Ry
     Gradient error          =      5.4E-03 Ry/Bohr

     number of scf cycles    =  10
     number of bfgs steps    =   9

     energy             old  =    -333.1837741266 Ry
     energy             new  =    -333.1839358066 Ry

     CASE: energy            _new < energy            _old


     WARNING: bfgs curvature condition failed, Theta= 0.385
     new trust radius        =       0.0667303311 bohr
     new conv_thr            =       0.0000000016 Ry


ATOMIC_POSITIONS (angstrom)
Pb               0.0000000000        0.0000000000        0.0000000000    0   0   0
Ti               1.9375000000        1.9375000000        2.0246900000    0   0   0
O                0.0000000000        1.9375000000        2.0373923984
O                1.9375000000        0.0000000000        2.0373923984
O                1.9375000000        1.9375000000        0.1055127226


     Message from routine punch:
     Nothing written, as per user request (disk_io='none')
     NEW-OLD atomic charge density approx. for the potential

     total cpu time spent up to now is       57.9 secs

     Self-consistent Calculation

     iteration #  1     ecut=    30.00 Ry     beta= 0.70
     Davidson diagonalization with overlap
     ethr =  1.00E-06,  avg # of iterations =  9.3

     total cpu time spent up to now is       58.6 secs

     total energy              =    -333.18412599 Ry
     estimated scf accuracy    <       0.00099009 Ry

     iteration #  2     ecut=    30.00 Ry     beta= 0.70
     Davidson diagonalization with overlap
     ethr =  2.25E-06,  avg # of iterations =  2.0

     total cpu time spent up to now is       59.0 secs

     total energy              =    -333.18424395 Ry
     estimated scf accuracy    <       0.00003339 Ry

     iteration #  3     ecut=    30.00 Ry     beta= 0.70
     Davidson diagonalization with overlap
     ethr =  7.59E-08,  avg # of iterations =  4.0

     total cpu time spent up to now is       59.5 secs

     total energy              =    -333.18424875 Ry
     estimated scf accuracy    <       0.00000911 Ry

     iteration #  4     ecut=    30.00 Ry     beta= 0.70
     Davidson diagonalization with overlap
     ethr =  2.07E-08,  avg # of iterations =  5.0

     total cpu time spent up to now is       59.9 secs

     total energy              =    -333.18425043 Ry
     estimated scf accuracy    <       0.00000644 Ry

     iteration #  5     ecut=    30.00 Ry     beta= 0.70
     Davidson diagonalization with overlap
     ethr =  1.46E-08,  avg # of iterations =  4.2

     total cpu time spent up to now is       60.3 secs

     total energy              =    -333.18425179 Ry
     estimated scf accuracy    <       0.00000031 Ry

     iteration #  6     ecut=    30.00 Ry     beta= 0.70
     Davidson diagonalization with overlap
     ethr =  6.96E-10,  avg # of iterations =  4.7

     total cpu time spent up to now is       60.8 secs

     total energy              =    -333.18425188 Ry
     estimated scf accuracy    <       0.00000032 Ry

     iteration #  7     ecut=    30.00 Ry     beta= 0.70
     Davidson diagonalization with overlap
     ethr =  6.96E-10,  avg # of iterations =  2.7

     total cpu time spent up to now is       61.2 secs

     total energy              =    -333.18425187 Ry
     estimated scf accuracy    <       0.00000008 Ry

     iteration #  8     ecut=    30.00 Ry     beta= 0.70
     Davidson diagonalization with overlap
     ethr =  1.73E-10,  avg # of iterations =  4.8

     total cpu time spent up to now is       61.6 secs

     total energy              =    -333.18425191 Ry
     estimated scf accuracy    <       0.00000007 Ry

     iteration #  9     ecut=    30.00 Ry     beta= 0.70
     Davidson diagonalization with overlap
     ethr =  1.48E-10,  avg # of iterations =  1.3

     total cpu time spent up to now is       62.0 secs

     total energy              =    -333.18425191 Ry
     estimated scf accuracy    <       0.00000003 Ry

     iteration # 10     ecut=    30.00 Ry     beta= 0.70
     Davidson diagonalization with overlap
     ethr =  6.95E-11,  avg # of iterations =  3.7

     total cpu time spent up to now is       62.4 secs

     End of self-consistent calculation

          k = 0.1250 0.1250 0.1250 (  1090 PWs)   bands (ev):

   -44.6654 -21.2751 -21.2738 -21.2712  -6.3412  -5.2773  -5.2500  -3.9427
    -3.9424  -3.9275  -3.7631  -3.7510   4.6706   7.3052   7.3108   8.1004
     9.1443   9.1480   9.8987   9.9566   9.9657  10.1321

          k = 0.1250 0.1250 0.3750 (  1095 PWs)   bands (ev):

   -44.6642 -21.3291 -21.2727 -21.2717  -5.9411  -5.1618  -5.0681  -4.0000
    -3.9363  -3.9245  -3.8490  -3.7306   3.9441   6.8504   7.3448   7.8405
     8.4503   8.7567   9.3821   9.9538  10.1012  10.8820

          k = 0.1250 0.3750 0.3750 (  1087 PWs)   bands (ev):

   -44.6629 -21.3288 -21.3255 -21.2701  -5.7238  -5.0164  -4.9340  -3.9756
    -3.9327  -3.8775  -3.7869  -3.6324   3.5707   6.7874   6.8563   7.1824
     7.4935   8.6709   9.4376   9.4985  10.0700  10.7379

          k = 0.3750 0.3750 0.3750 (  1082 PWs)   bands (ev):

   -44.6617 -21.3264 -21.3261 -21.3230  -5.3102  -5.1477  -5.1236  -3.8873
[...]

          k = 0.1250 0.1250 0.3750 (  1095 PWs)   bands (ev):

   -44.6463 -21.3462 -21.2522 -21.2513  -6.0410  -5.2595  -5.0575  -3.9222
    -3.8641  -3.8516  -3.7145  -3.6725   3.9617   6.8320   7.1032   7.7032
     8.5739   8.6616   9.3606   9.8333  10.0327  10.9651

          k = 0.1250 0.3750 0.3750 (  1087 PWs)   bands (ev):

   -44.6450 -21.3425 -21.3072 -21.2497  -5.8052  -5.1396  -4.9597  -3.9042
    -3.8603  -3.8037  -3.6980  -3.5152   3.6133   6.5868   6.9552   7.1407
     7.4338   8.6423   9.3951   9.4369  10.1524  10.6650

          k = 0.3750 0.3750 0.3750 (  1082 PWs)   bands (ev):

   -44.6437 -21.3400 -21.3048 -21.3047  -5.4036  -5.2527  -5.1376  -3.8158
    -3.8131  -3.5535  -3.4495  -3.4245   4.0830   5.9038   5.9477   6.6139
     7.1292   7.1467   8.2249  10.5860  10.6120  10.6991

          k = 0.3750-0.1250 0.1250 (  1095 PWs)   bands (ev):

   -44.6463 -21.3111 -21.2857 -21.2519  -6.0059  -5.2324  -5.1727  -3.9345
    -3.8683  -3.8476  -3.7261  -3.6205   3.9405   6.8188   7.3129   7.8102
     8.3656   8.8018   9.3140   9.8451   9.9603  10.9231

          k = 0.3750-0.3750 0.1250 (  1087 PWs)   bands (ev):

   -44.6450 -21.3081 -21.3070 -21.2833  -5.7305  -5.1506  -5.1143  -3.9044
    -3.8397  -3.7397  -3.6391  -3.5785   3.4809   6.7541   6.8366   7.2017
     7.5677   8.7194   9.4770   9.4958  10.1225  10.6243

     highest occupied level (ev):    10.9651

!    total energy              =    -333.18570389 Ry
     estimated scf accuracy    <          2.3E-09 Ry

     The total energy is the sum of the following terms:
     one-electron contribution =     -77.76812299 Ry
     hartree contribution      =      66.88167562 Ry
     xc contribution           =     -49.67738241 Ry
     ewald contribution        =    -272.62187411 Ry

     convergence has been achieved in  10 iterations

     Forces acting on atoms (cartesian axes, Ry/au):

     atom    1 type  2   force =     0.00000000    0.00000000   -0.00237336
     atom    2 type  3   force =     0.00000000    0.00000000   -0.00076167
     atom    3 type  1   force =     0.00000000    0.00000000   -0.00426001
     atom    4 type  1   force =     0.00000000    0.00000000   -0.00426001
     atom    5 type  1   force =     0.00000000    0.00000000    0.01165506

     Total force =     0.013120     Total SCF correction =     0.000026


     Computing stress (Cartesian axis) and pressure

          total   stress  (Ry/bohr**3)                   (kbar)     P=       -0.53
  -0.00005973   0.00000000   0.00000000           -8.79        0.00        0.00
   0.00000000  -0.00005973   0.00000000            0.00       -8.79        0.00
   0.00000000   0.00000000   0.00010875            0.00        0.00       16.00

     Energy error            =      1.0E-04 Ry
     Gradient error          =      1.2E-02 Ry/Bohr

     number of scf cycles    =  23
     number of bfgs steps    =  22

     energy             old  =    -333.1856013143 Ry
     energy             new  =    -333.1857038868 Ry

     CASE: energy            _new < energy            _old

     new trust radius        =       0.0169114695 bohr
     new conv_thr            =       0.0000000010 Ry


ATOMIC_POSITIONS (angstrom)
Pb               0.0000000000        0.0000000000        0.0000000000    0   0   0
Ti               1.9375000000        1.9375000000        2.0246900000    0   0   0
O                0.0000000000        1.9375000000        2.2003314523
O                1.9375000000        0.0000000000        2.2003314523
O                1.9375000000        1.9375000000        0.2071410753


     Message from routine punch:
     Nothing written, as per user request (disk_io='none')
     NEW-OLD atomic charge density approx. for the potential

     total cpu time spent up to now is      127.5 secs

     Self-consistent Calculation

     iteration #  1     ecut=    30.00 Ry     beta= 0.70
     Davidson diagonalization with overlap
     ethr =  1.00E-06,  avg # of iterations =  5.0

     total cpu time spent up to now is      128.1 secs

     total energy              =    -333.18587661 Ry
     estimated scf accuracy    <       0.00012539 Ry

     iteration #  2     ecut=    30.00 Ry     beta= 0.70
     Davidson diagonalization with overlap
     ethr =  2.85E-07,  avg # of iterations =  4.0

     total cpu time spent up to now is      128.5 secs

     total energy              =    -333.18590055 Ry
     estimated scf accuracy    <       0.00006610 Ry

     iteration #  3     ecut=    30.00 Ry     beta= 0.70
     Davidson diagonalization with overlap
     ethr =  1.50E-07,  avg # of iterations =  4.3

     total cpu time spent up to now is      129.0 secs

     total energy              =    -333.18591643 Ry
     estimated scf accuracy    <       0.00001600 Ry

     iteration #  4     ecut=    30.00 Ry     beta= 0.70
     Davidson diagonalization with overlap
     ethr =  3.64E-08,  avg # of iterations =  4.0

     total cpu time spent up to now is      129.4 secs

     total energy              =    -333.18591955 Ry
     estimated scf accuracy    <       0.00000041 Ry

     iteration #  5     ecut=    30.00 Ry     beta= 0.70
     Davidson diagonalization with overlap
     ethr =  9.21E-10,  avg # of iterations =  5.8

     total cpu time spent up to now is      129.8 secs

     total energy              =    -333.18591981 Ry
     estimated scf accuracy    <       0.00000069 Ry

     iteration #  6     ecut=    30.00 Ry     beta= 0.70
     Davidson diagonalization with overlap
     ethr =  9.21E-10,  avg # of iterations =  3.7

     total cpu time spent up to now is      130.2 secs

     total energy              =    -333.18591986 Ry
     estimated scf accuracy    <       0.00000008 Ry

     iteration #  7     ecut=    30.00 Ry     beta= 0.70
     Davidson diagonalization with overlap
     ethr =  1.86E-10,  avg # of iterations =  4.7

     total cpu time spent up to now is      130.7 secs

     total energy              =    -333.18591989 Ry
     estimated scf accuracy    <       0.00000001 Ry

     iteration #  8     ecut=    30.00 Ry     beta= 0.70
     Davidson diagonalization with overlap
     ethr =  3.40E-11,  avg # of iterations =  2.0

     total cpu time spent up to now is      131.0 secs

     total energy              =    -333.18591989 Ry
     estimated scf accuracy    <       0.00000001 Ry

     iteration #  9     ecut=    30.00 Ry     beta= 0.70
     Davidson diagonalization with overlap
     ethr =  2.45E-11,  avg # of iterations =  4.2

     total cpu time spent up to now is      131.4 secs

     End of self-consistent calculation

          k = 0.1250 0.1250 0.1250 (  1090 PWs)   bands (ev):

   -44.6306 -21.2805 -21.2379 -21.2369  -6.4149  -5.3505  -5.2554  -3.8862
    -3.8852  -3.8625  -3.7169  -3.6325   4.6852   7.2030   7.3065   8.0649
     9.0321   9.0729   9.6416   9.7705   9.9569  10.2485

          k = 0.1250 0.1250 0.3750 (  1095 PWs)   bands (ev):

   -44.6293 -21.3387 -21.2357 -21.2348  -6.0289  -5.2504  -5.0657  -3.9308
    -3.8723  -3.8607  -3.7269  -3.6814   3.9514   6.8355   7.1208   7.7224
     8.5556   8.6549   9.3541   9.8384  10.0412  10.9579

          k = 0.1250 0.3750 0.3750 (  1087 PWs)   bands (ev):

   -44.6280 -21.3350 -21.2909 -21.2331  -5.7958  -5.1281  -4.9652  -3.9126
    -3.8690  -3.8129  -3.7078  -3.5252   3.6067   6.5874   6.9530   7.1483
     7.4388   8.6466   9.3954   9.4264  10.1413  10.6624

          k = 0.3750 0.3750 0.3750 (  1082 PWs)   bands (ev):

   -44.6267 -21.3324 -21.2885 -21.2884  -5.3936  -5.2427  -5.1419  -3.8248
    -3.8212  -3.5626  -3.4589  -3.4332   4.0868   5.9030   5.9433   6.6229
     7.1207   7.1398   8.2084  10.5943  10.6055  10.6948

          k = 0.3750-0.1250 0.1250 (  1095 PWs)   bands (ev):

   -44.6293 -21.2948 -21.2780 -21.2353  -5.9985  -5.2250  -5.1720  -3.9427
    -3.8762  -3.8574  -3.7364  -3.6311   3.9388   6.8205   7.3111   7.8192
     8.3678   8.7955   9.3001   9.8474   9.9592  10.9162

          k = 0.3750-0.3750 0.1250 (  1087 PWs)   bands (ev):

   -44.6280 -21.2918 -21.2906 -21.2756  -5.7308  -5.1417  -5.1009  -3.9123
    -3.8491  -3.7510  -3.6513  -3.5891   3.4852   6.7594   6.8413   7.1919
     7.5536   8.7158   9.4688   9.4859  10.1141  10.6327

     highest occupied level (ev):    10.9579

!    total energy              =    -333.18591989 Ry
     estimated scf accuracy    <          5.9E-11 Ry

     The total energy is the sum of the following terms:
     one-electron contribution =     -77.77857753 Ry
     hartree contribution      =      66.88933682 Ry
     xc contribution           =     -49.68000187 Ry
     ewald contribution        =    -272.61667731 Ry

     convergence has been achieved in   9 iterations

     Forces acting on atoms (cartesian axes, Ry/au):

     atom    1 type  2   force =     0.00000000    0.00000000   -0.00214039
     atom    2 type  3   force =     0.00000000    0.00000000    0.00151016
     atom    3 type  1   force =     0.00000000    0.00000000   -0.00113579
     atom    4 type  1   force =     0.00000000    0.00000000   -0.00113579
     atom    5 type  1   force =     0.00000000    0.00000000    0.00290182

     Total force =     0.003317     Total SCF correction =     0.000004


     Computing stress (Cartesian axis) and pressure

          total   stress  (Ry/bohr**3)                   (kbar)     P=        1.30
  -0.00005479   0.00000000   0.00000000           -8.06        0.00        0.00
   0.00000000  -0.00005479   0.00000000            0.00       -8.06        0.00
   0.00000000   0.00000000   0.00013606            0.00        0.00       20.02

     Energy error            =      2.2E-04 Ry
     Gradient error          =      2.9E-03 Ry/Bohr

     number of scf cycles    =  24
     number of bfgs steps    =  23

     energy             old  =    -333.1857038868 Ry
     energy             new  =    -333.1859198921 Ry

     CASE: energy            _new < energy            _old

     new trust radius        =       0.0085904909 bohr
     new conv_thr            =       0.0000000022 Ry


ATOMIC_POSITIONS (angstrom)
Pb               0.0000000000        0.0000000000        0.0000000000    0   0   0
Ti               1.9375000000        1.9375000000        2.0246900000    0   0   0
O                0.0000000000        1.9375000000        2.1957855603
O                1.9375000000        0.0000000000        2.1957855603
O                1.9375000000        1.9375000000        0.2091442131


     Message from routine punch:
     Nothing written, as per user request (disk_io='none')
     NEW-OLD atomic charge density approx. for the potential

     total cpu time spent up to now is      133.0 secs

     Self-consistent Calculation

     iteration #  1     ecut=    30.00 Ry     beta= 0.70
     Davidson diagonalization with overlap
     ethr =  1.00E-06,  avg # of iterations =  3.0

     Threshold (ethr) on eigenvalues was too large:
     Diagonalizing with lowered threshold

     Davidson diagonalization with overlap
     ethr =  3.09E-08,  avg # of iterations =  4.3

     total cpu time spent up to now is      133.7 secs

     total energy              =    -333.18592873 Ry
     estimated scf accuracy    <       0.00001855 Ry

     iteration #  2     ecut=    30.00 Ry     beta= 0.70
     Davidson diagonalization with overlap
     ethr =  4.21E-08,  avg # of iterations =  3.7

     total cpu time spent up to now is      134.2 secs

     total energy              =    -333.18593244 Ry
     estimated scf accuracy    <       0.00000751 Ry

     iteration #  3     ecut=    30.00 Ry     beta= 0.70
     Davidson diagonalization with overlap
     ethr =  1.71E-08,  avg # of iterations =  4.3

     total cpu time spent up to now is      134.6 secs

     total energy              =    -333.18593410 Ry
     estimated scf accuracy    <       0.00000213 Ry

     iteration #  4     ecut=    30.00 Ry     beta= 0.70
     Davidson diagonalization with overlap
     ethr =  4.85E-09,  avg # of iterations =  3.8

     total cpu time spent up to now is      135.0 secs

     total energy              =    -333.18593455 Ry
     estimated scf accuracy    <       0.00000007 Ry

     iteration #  5     ecut=    30.00 Ry     beta= 0.70
     Davidson diagonalization with overlap
     ethr =  1.60E-10,  avg # of iterations =  5.2

     total cpu time spent up to now is      135.5 secs

     total energy              =    -333.18593459 Ry
     estimated scf accuracy    <       0.00000012 Ry

     iteration #  6     ecut=    30.00 Ry     beta= 0.70
     Davidson diagonalization with overlap
     ethr =  1.60E-10,  avg # of iterations =  3.3

     total cpu time spent up to now is      135.9 secs

     total energy              =    -333.18593459 Ry
     estimated scf accuracy    <       0.00000002 Ry

     iteration #  7     ecut=    30.00 Ry     beta= 0.70
     Davidson diagonalization with overlap
     ethr =  4.97E-11,  avg # of iterations =  4.7

     total cpu time spent up to now is      136.3 secs

     total energy              =    -333.18593460 Ry
     estimated scf accuracy    <          5.3E-09 Ry

     iteration #  8     ecut=    30.00 Ry     beta= 0.70
     Davidson diagonalization with overlap
     ethr =  1.20E-11,  avg # of iterations =  1.5

     total cpu time spent up to now is      136.7 secs

     total energy              =    -333.18593460 Ry
     estimated scf accuracy    <          3.4E-09 Ry

     iteration #  9     ecut=    30.00 Ry     beta= 0.70
     Davidson diagonalization with overlap
     ethr =  7.80E-12,  avg # of iterations =  4.0

     total cpu time spent up to now is      137.1 secs

     End of self-consistent calculation

          k = 0.1250 0.1250 0.1250 (  1090 PWs)   bands (ev):

   -44.6256 -21.2780 -21.2331 -21.2321  -6.4110  -5.3470  -5.2572  -3.8896
    -3.8885  -3.8664  -3.7203  -3.6381   4.6832   7.2088   7.3074   8.0700
     9.0303   9.0734   9.6415   9.7740   9.9585  10.2442

          k = 0.1250 0.1250 0.3750 (  1095 PWs)   bands (ev):

   -44.6243 -21.3362 -21.2309 -21.2300  -6.0239  -5.2463  -5.0683  -3.9345
    -3.8759  -3.8646  -3.7327  -3.6850   3.9480   6.8371   7.1296   7.7302
     8.5483   8.6540   9.3525   9.8419  10.0448  10.9545

          k = 0.1250 0.3750 0.3750 (  1087 PWs)   bands (ev):

   -44.6230 -21.3325 -21.2862 -21.2283  -5.7918  -5.1229  -4.9664  -3.9162
    -3.8728  -3.8168  -3.7120  -3.5299   3.6040   6.5898   6.9516   7.1509
     7.4412   8.6481   9.3939   9.4262  10.1367  10.6627

          k = 0.3750 0.3750 0.3750 (  1082 PWs)   bands (ev):

   -44.6218 -21.3299 -21.2838 -21.2836  -5.3892  -5.2382  -5.1429  -3.8286
    -3.8247  -3.5662  -3.4630  -3.4372   4.0890   5.9031   5.9420   6.6272
     7.1162   7.1356   8.2006  10.5980  10.6049  10.6948

          k = 0.3750-0.1250 0.1250 (  1095 PWs)   bands (ev):

   -44.6243 -21.2901 -21.2755 -21.2305  -5.9951  -5.2218  -5.1706  -3.9462
    -3.8796  -3.8615  -3.7412  -3.6359   3.9382   6.8209   7.3107   7.8225
     8.3695   8.7926   9.2970   9.8499   9.9610  10.9137

          k = 0.3750-0.3750 0.1250 (  1087 PWs)   bands (ev):

   -44.6231 -21.2871 -21.2859 -21.2731  -5.7303  -5.1372  -5.0948  -3.9158
    -3.8532  -3.7561  -3.6570  -3.5934   3.4874   6.7617   6.8425   7.1886
     7.5481   8.7142   9.4667   9.4823  10.1109  10.6366

     highest occupied level (ev):    10.9545

!    total energy              =    -333.18593460 Ry
     estimated scf accuracy    <          3.6E-11 Ry

     The total energy is the sum of the following terms:
     one-electron contribution =     -77.77110350 Ry
     hartree contribution      =      66.88628526 Ry
     xc contribution           =     -49.68053205 Ry
     ewald contribution        =    -272.62058431 Ry

     convergence has been achieved in   9 iterations

     Forces acting on atoms (cartesian axes, Ry/au):

     atom    1 type  2   force =     0.00000000    0.00000000   -0.00202816
     atom    2 type  3   force =     0.00000000    0.00000000    0.00203745
     atom    3 type  1   force =     0.00000000    0.00000000    0.00000169
     atom    4 type  1   force =     0.00000000    0.00000000    0.00000169
     atom    5 type  1   force =     0.00000000    0.00000000   -0.00001267

     Total force =     0.000013     Total SCF correction =     0.000001
     SCF correction compared to forces is large: reduce conv_thr to get better values


     Computing stress (Cartesian axis) and pressure

          total   stress  (Ry/bohr**3)                   (kbar)     P=        1.79
  -0.00005293   0.00000000   0.00000000           -7.79        0.00        0.00
   0.00000000  -0.00005293   0.00000000            0.00       -7.79        0.00
   0.00000000   0.00000000   0.00014230            0.00        0.00       20.93

     Energy error            =      1.5E-05 Ry
     Gradient error          =      1.3E-05 Ry/Bohr

     bfgs converged in  25 scf cycles and  24 bfgs steps
     (criteria: energy <  1.0E-04 Ry, force <  1.0E-03 Ry/Bohr)

     End of BFGS Geometry Optimization

     Final energy             =    -333.1859345993 Ry

     File /home/bond/Work/Lab4/Problem2/PbTiO3_a_3.875_ecut_30_nk_4_displ_0.0225/pwscf.bfgs deleted, as requested
Begin final coordinates

ATOMIC_POSITIONS (angstrom)
Pb               0.0000000000        0.0000000000        0.0000000000    0   0   0
Ti               1.9375000000        1.9375000000        2.0246900000    0   0   0
O                0.0000000000        1.9375000000        2.1957855603
O                1.9375000000        0.0000000000        2.1957855603
O                1.9375000000        1.9375000000        0.2091442131
End final coordinates


     Message from routine punch:
     Nothing written, as per user request (disk_io='none')

     init_run     :      1.16s CPU      1.30s WALL (       1 calls)
     electrons    :     83.53s CPU     97.77s WALL (      25 calls)
     update_pot   :      0.17s CPU      0.19s WALL (      24 calls)
     forces       :      3.45s CPU      4.12s WALL (      25 calls)
     stress       :     29.43s CPU     31.42s WALL (      25 calls)

     Called by init_run:
     wfcinit      :      0.07s CPU      0.08s WALL (       1 calls)
     potinit      :      0.08s CPU      0.09s WALL (       1 calls)
     hinit0       :      0.81s CPU      0.85s WALL (       1 calls)

     Called by electrons:
     c_bands      :     37.43s CPU     40.51s WALL (     218 calls)
     sum_band     :     26.41s CPU     32.47s WALL (     218 calls)
     v_of_rho     :      0.70s CPU      0.74s WALL (     231 calls)
     newd         :     20.83s CPU     26.57s WALL (     231 calls)
     mix_rho      :      0.34s CPU      0.38s WALL (     218 calls)

     Called by c_bands:
     init_us_2    :      1.10s CPU      1.20s WALL (    2922 calls)
     cegterg      :     35.08s CPU     38.02s WALL (    1308 calls)

     Called by *egterg:
     cdiaghg      :      4.65s CPU      4.96s WALL (    6577 calls)
     h_psi        :     23.95s CPU     26.14s WALL (    6799 calls)
     s_psi        :      1.01s CPU      1.11s WALL (    6799 calls)
     g_psi        :      0.17s CPU      0.18s WALL (    5485 calls)

     Called by h_psi:
     h_psi:calbec :      1.82s CPU      2.02s WALL (    6799 calls)
     vloc_psi     :     20.77s CPU     22.61s WALL (    6799 calls)
     add_vuspsi   :      1.16s CPU      1.29s WALL (    6799 calls)

     General routines
     calbec       :      3.14s CPU      3.42s WALL (   10657 calls)
     fft          :      1.18s CPU      1.26s WALL (    1497 calls)
     ffts         :      0.11s CPU      0.11s WALL (     449 calls)
     fftw         :     19.04s CPU     20.81s WALL (  202800 calls)
     interpolate  :      0.25s CPU      0.26s WALL (     231 calls)

     Parallel routines

     PWSCF        :   2m 0.62s CPU   2m18.46s WALL


   This run was terminated on:  13:30:58  21Oct2025            

=------------------------------------------------------------------------------=
   JOB DONE.
=------------------------------------------------------------------------------=
