
     Program PWSCF v.7.4.1 starts on  7Oct2025 at 23:55:40 

     This program is part of the open-source Quantum ESPRESSO suite
     for quantum simulation of materials; please cite
         "P. Giannozzi et al., J. Phys.:Condens. Matter 21 395502 (2009);
         "P. Giannozzi et al., J. Phys.:Condens. Matter 29 465901 (2017);
         "P. Giannozzi et al., J. Chem. Phys. 152 154105 (2020);
          URL http://www.quantum-espresso.org", 
     in publications or presentations arising from this work. More details at
     http://www.quantum-espresso.org/quote

     Parallel version (MPI), running on     1 processors

     MPI processes distributed on     1 nodes
     298 MiB available memory on the printing compute node when the environment starts

     Waiting for input...
     Reading input from standard input
Warning: card &CELL ignored
Warning: card / ignored

     Current dimensions of program PWSCF are:
     Max number of different atomic species (ntypx) = 10
     Max number of k-points (npk) =  40000
     Max angular momentum in pseudopotentials (lmaxx) =  4
     Message from routine setup:
     using ibrav=0 with symmetry is DISCOURAGED, use correct ibrav instead

     Subspace diagonalization in iterative solution of the eigenvalue problem:
     a serial algorithm will be used


     G-vector sticks info
     --------------------
     sticks:   dense  smooth     PW     G-vecs:    dense   smooth      PW
     Sum         475     475    151                 6855     6855    1243

     Using Slab Decomposition



     bravais-lattice index     =            0
     lattice parameter (alat)  =       7.5604  a.u.
     unit-cell volume          =     305.5804 (a.u.)^3
     number of atoms/cell      =            2
     number of atomic types    =            1
     number of electrons       =        28.00
     number of Kohn-Sham states=           14
     kinetic-energy cutoff     =      30.0000  Ry
     charge density cutoff     =     120.0000  Ry
     scf convergence threshold =      1.0E-07
     mixing beta               =       0.5000
     number of iterations used =            8  plain     mixing
     Exchange-correlation=  SLA  PZ   NOGX NOGC
                           (   1   1   0   0   0   0   0)

     celldm(1)=   7.560435  celldm(2)=   0.000000  celldm(3)=   0.000000
     celldm(4)=   0.000000  celldm(5)=   0.000000  celldm(6)=   0.000000

     crystal axes: (cart. coord. in units of alat)
               a(1) = (   0.000000   0.707107   0.707107 )  
               a(2) = (   0.707107   0.000000   0.707107 )  
               a(3) = (   0.707107   0.707107   0.000000 )  

     reciprocal axes: (cart. coord. in units 2 pi/alat)
               b(1) = ( -0.707107  0.707107  0.707107 )  
               b(2) = (  0.707107 -0.707107  0.707107 )  
               b(3) = (  0.707107  0.707107 -0.707107 )  


     PseudoPot. # 1 for Ge read from file:
     /home/bond/Software/QE/qe-7.4.1/pseudo/ge_lda_v1.4.uspp.F.UPF
     MD5 check sum: bf9d52b59cc8a669818bb2b52e0c2ba0
     Pseudo is Ultrasoft + core correction, Zval = 14.0
     Generated by new atomic code, or converted to UPF format
     Using radial grid of  873 points,  6 beta functions with: 
                l(1) =   0
                l(2) =   0
                l(3) =   1
                l(4) =   1
                l(5) =   2
                l(6) =   2
     Q(r) pseudized with  8 coefficients,  rinner =    1.400   1.400   1.400
                                                       1.400   1.400

     atomic species   valence    mass     pseudopotential
     Ge               14.00    72.63000     Ge( 1.00)

     48 Sym. Ops., with inversion, found (24 have fractional translation)



   Cartesian axes

     site n.     atom                  positions (alat units)
         1        Ge     tau(   1) = (   0.0000000   0.0000000   0.0000000  )
         2        Ge     tau(   2) = (   0.3535534   0.3535534   0.3535534  )

     number of k points=    20
                       cart. coord. in units 2pi/alat
        k(    1) = (   0.0000000   0.0000000   0.0000000), wk =   0.0058309
        k(    2) = (   0.1010153   0.1010153  -0.1010153), wk =   0.0466472
        k(    3) = (   0.2020305   0.2020305  -0.2020305), wk =   0.0466472
        k(    4) = (   0.3030458   0.3030458  -0.3030458), wk =   0.0466472
        k(    5) = (   0.2020305   0.0000000   0.0000000), wk =   0.0349854
        k(    6) = (   0.3030458   0.1010153  -0.1010153), wk =   0.1399417
        k(    7) = (   0.4040610   0.2020305  -0.2020305), wk =   0.1399417
        k(    8) = (  -0.2020305  -0.4040610   0.4040610), wk =   0.1399417
        k(    9) = (  -0.1010153  -0.3030458   0.3030458), wk =   0.1399417
        k(   10) = (  -0.0000000  -0.2020305   0.2020305), wk =   0.0699708
        k(   11) = (   0.4040610   0.0000000   0.0000000), wk =   0.0349854
        k(   12) = (   0.5050763   0.1010153  -0.1010153), wk =   0.1399417
        k(   13) = (  -0.1010153  -0.5050763   0.5050763), wk =   0.1399417
        k(   14) = (   0.0000000  -0.4040610   0.4040610), wk =   0.0699708
        k(   15) = (   0.6060915   0.0000000   0.0000000), wk =   0.0349854
        k(   16) = (   0.0000000  -0.6060915   0.6060915), wk =   0.0699708
        k(   17) = (   0.4040610   0.2020305   0.0000000), wk =   0.1399417
        k(   18) = (  -0.2020305  -0.4040610   0.6060915), wk =   0.2798834
        k(   19) = (  -0.1010153  -0.5050763   0.7071068), wk =   0.1399417
        k(   20) = (   0.0000000  -0.4040610   0.6060915), wk =   0.1399417

     Dense  grid:     6855 G-vectors     FFT dimensions: (  32,  32,  32)

     Estimated max dynamical RAM per process >      31.28 MB

     Check: negative core charge=   -0.000126

     Initial potential from superposition of free atoms

     starting charge      27.9986, renormalised to      28.0000
     Starting wfcs are   18 randomized atomic wfcs

     total cpu time spent up to now is        1.0 secs

     Self-consistent Calculation

     iteration #  1     ecut=    30.00 Ry     beta= 0.50
     Davidson diagonalization with overlap
     ethr =  1.00E-02,  avg # of iterations =  1.7

     Threshold (ethr) on eigenvalues was too large:
     Diagonalizing with lowered threshold

     Davidson diagonalization with overlap
     ethr =  1.22E-04,  avg # of iterations =  2.0

     total cpu time spent up to now is        2.0 secs

     total energy              =    -426.13777112 Ry
     estimated scf accuracy    <       0.03623816 Ry

     iteration #  2     ecut=    30.00 Ry     beta= 0.50
     Davidson diagonalization with overlap
     ethr =  1.29E-04,  avg # of iterations =  1.0

     total cpu time spent up to now is        2.5 secs

     total energy              =    -426.13660055 Ry
     estimated scf accuracy    <       0.00617076 Ry

     iteration #  3     ecut=    30.00 Ry     beta= 0.50
     Davidson diagonalization with overlap
     ethr =  2.20E-05,  avg # of iterations =  2.0

     total cpu time spent up to now is        3.0 secs

     total energy              =    -426.13708330 Ry
     estimated scf accuracy    <       0.00006812 Ry

     iteration #  4     ecut=    30.00 Ry     beta= 0.50
     Davidson diagonalization with overlap
     ethr =  2.43E-07,  avg # of iterations =  3.9

     total cpu time spent up to now is        3.6 secs

     total energy              =    -426.13710383 Ry
     estimated scf accuracy    <       0.00000646 Ry

     iteration #  5     ecut=    30.00 Ry     beta= 0.50
     Davidson diagonalization with overlap
     ethr =  2.31E-08,  avg # of iterations =  2.3

     total cpu time spent up to now is        4.1 secs

     End of self-consistent calculation

          k = 0.0000 0.0000 0.0000 (   869 PWs)   bands (ev):

   -16.8270 -16.8270 -16.8270 -16.8016 -16.8016 -16.6003 -16.6003 -16.6003
   -16.5773 -16.5773  -4.6645   7.9576   8.1521   8.1521

          k = 0.1010 0.1010-0.1010 (   857 PWs)   bands (ev):

   -16.8394 -16.8394 -16.8225 -16.7807 -16.7807 -16.6059 -16.6059 -16.5951
   -16.5659 -16.5659  -4.4169   5.3722   7.7379   7.7379

          k = 0.2020 0.2020-0.2020 (   845 PWs)   bands (ev):

   -16.8483 -16.8483 -16.8168 -16.7607 -16.7607 -16.6130 -16.6130 -16.6038
   -16.5537 -16.5537  -3.7096   2.7632   7.1372   7.1372

          k = 0.3030 0.3030-0.3030 (   853 PWs)   bands (ev):

   -16.8517 -16.8517 -16.8154 -16.7553 -16.7553 -16.6234 -16.6234 -16.6133
   -16.5490 -16.5490  -2.7888   0.8425   6.7936   6.7936

          k = 0.2020 0.0000 0.0000 (   869 PWs)   bands (ev):

   -16.8425 -16.8396 -16.8396 -16.7890 -16.7673 -16.6361 -16.5878 -16.5834
   -16.5834 -16.5649  -4.3327   5.3339   7.0985   7.0985

          k = 0.3030 0.1010-0.1010 (   854 PWs)   bands (ev):

   -16.8537 -16.8460 -16.8243 -16.7683 -16.7431 -16.6552 -16.6057 -16.5850
   -16.5638 -16.5521  -3.7693   3.3589   6.2888   6.5014

          k = 0.4041 0.2020-0.2020 (   837 PWs)   bands (ev):

   -16.8589 -16.8461 -16.8039 -16.7490 -16.7331 -16.6525 -16.6171 -16.6017
   -16.5483 -16.5363  -2.8552   1.3260   5.5187   6.2682

          k =-0.2020-0.4041 0.4041 (   843 PWs)   bands (ev):

   -16.8629 -16.8550 -16.7960 -16.7445 -16.7387 -16.6348 -16.6340 -16.6199
   -16.5418 -16.5349  -2.3833   0.5599   5.1198   6.4525

          k =-0.1010-0.3030 0.3030 (   845 PWs)   bands (ev):

   -16.8552 -16.8547 -16.7994 -16.7588 -16.7389 -16.6406 -16.6247 -16.6076
   -16.5455 -16.5438  -3.1860   1.9542   5.2137   6.9929

          k =-0.0000-0.2020 0.2020 (   849 PWs)   bands (ev):

   -16.8495 -16.8388 -16.8196 -16.7722 -16.7563 -16.6287 -16.6153 -16.5806
   -16.5706 -16.5525  -4.0118   3.9735   6.0491   7.6478

          k = 0.4041 0.0000 0.0000 (   849 PWs)   bands (ev):

   -16.8480 -16.8480 -16.8373 -16.7493 -16.7143 -16.6947 -16.6142 -16.5682
   -16.5550 -16.5550  -3.3518   2.7215   5.8482   5.8482

          k = 0.5051 0.1010-0.1010 (   843 PWs)   bands (ev):

   -16.8644 -16.8511 -16.8099 -16.7270 -16.7127 -16.6927 -16.6333 -16.5927
   -16.5434 -16.5316  -2.5177   1.2878   4.8683   5.5596

          k =-0.1010-0.5051 0.5051 (   849 PWs)   bands (ev):

   -16.8773 -16.8573 -16.7854 -16.7133 -16.7074 -16.6913 -16.6554 -16.6227
   -16.5370 -16.5230  -1.7203   0.2378   3.9513   5.7219

          k = 0.0000-0.4041 0.4041 (   849 PWs)   bands (ev):

   -16.8738 -16.8642 -16.7799 -16.7343 -16.7145 -16.6619 -16.6544 -16.6269
   -16.5358 -16.5272  -2.3013   0.9430   3.9039   6.2860

          k = 0.6061 0.0000 0.0000 (   830 PWs)   bands (ev):

   -16.8496 -16.8496 -16.8053 -16.7521 -16.7029 -16.6564 -16.6509 -16.5965
   -16.5278 -16.5278  -1.7726   0.3032   5.1672   5.1672

          k = 0.0000-0.6061 0.6061 (   846 PWs)   bands (ev):

   -16.8707 -16.8576 -16.7819 -16.7585 -16.6851 -16.6750 -16.6494 -16.6230
   -16.5299 -16.5260  -0.9205  -0.5955   4.3706   5.2271

          k = 0.4041 0.2020 0.0000 (   844 PWs)   bands (ev):

   -16.8589 -16.8565 -16.8042 -16.7490 -16.7195 -16.6757 -16.6178 -16.6004
   -16.5448 -16.5414  -3.0736   2.0910   4.8826   6.1832

          k =-0.2020-0.4041 0.6061 (   853 PWs)   bands (ev):

   -16.8734 -16.8645 -16.7843 -16.7354 -16.7115 -16.6801 -16.6414 -16.6263
   -16.5367 -16.5286  -2.1411   0.6796   4.2465   5.6771

          k =-0.1010-0.5051 0.7071 (   842 PWs)   bands (ev):

   -16.8676 -16.8636 -16.7764 -16.7330 -16.7059 -16.6706 -16.6562 -16.6223
   -16.5275 -16.5254  -1.6068   0.1985   4.4211   4.8486

          k = 0.0000-0.4041 0.6061 (   841 PWs)   bands (ev):

   -16.8758 -16.8665 -16.7587 -16.7136 -16.7005 -16.6765 -16.6710 -16.6388
   -16.5249 -16.5197  -1.2430  -0.1597   3.8599   4.9314

     highest occupied level (ev):     8.1521

!    total energy              =    -426.13710489 Ry
     estimated scf accuracy    <       0.00000009 Ry

     The total energy is the sum of the following terms:
     one-electron contribution =    -278.99187778 Ry
     hartree contribution      =     164.84868321 Ry
     xc contribution           =    -114.49943525 Ry
     ewald contribution        =    -197.49447506 Ry

     convergence has been achieved in   5 iterations

     Forces acting on atoms (cartesian axes, Ry/au):

     atom    1 type  1   force =     0.00000000    0.00000000   -0.00000000
     atom    2 type  1   force =    -0.00000000   -0.00000000    0.00000000

     Total force =     0.000000     Total SCF correction =     0.000000


     Computing stress (Cartesian axis) and pressure

          total   stress  (Ry/bohr**3)                   (kbar)     P=     -154.88
  -0.00105285  -0.00000000  -0.00000000         -154.88       -0.00       -0.00
  -0.00000000  -0.00105285  -0.00000000           -0.00     -154.88       -0.00
  -0.00000000  -0.00000000  -0.00105285           -0.00       -0.00     -154.88

     Message from routine punch:
     Nothing written, as per user request (disk_io='none')

     init_run     :      0.78s CPU      0.80s WALL (       1 calls)
     electrons    :      3.12s CPU      3.18s WALL (       1 calls)
     forces       :      0.06s CPU      0.06s WALL (       1 calls)
     stress       :      0.45s CPU      0.45s WALL (       1 calls)

     Called by init_run:
     wfcinit      :      0.36s CPU      0.36s WALL (       1 calls)
     potinit      :      0.02s CPU      0.02s WALL (       1 calls)
     hinit0       :      0.37s CPU      0.37s WALL (       1 calls)

     Called by electrons:
     c_bands      :      2.39s CPU      2.43s WALL (       6 calls)
     sum_band     :      0.59s CPU      0.61s WALL (       6 calls)
     v_of_rho     :      0.02s CPU      0.02s WALL (       6 calls)
     newd         :      0.14s CPU      0.15s WALL (       6 calls)
     mix_rho      :      0.00s CPU      0.00s WALL (       6 calls)

     Called by c_bands:
     init_us_2    :      0.11s CPU      0.11s WALL (     300 calls)
     cegterg      :      2.14s CPU      2.18s WALL (     120 calls)

     Called by *egterg:
     cdiaghg      :      0.10s CPU      0.10s WALL (     358 calls)
     h_psi        :      2.09s CPU      2.13s WALL (     398 calls)
     s_psi        :      0.05s CPU      0.05s WALL (     398 calls)
     g_psi        :      0.01s CPU      0.01s WALL (     258 calls)

     Called by h_psi:
     h_psi:calbec :      0.07s CPU      0.07s WALL (     398 calls)
     vloc_psi     :      1.95s CPU      1.98s WALL (     398 calls)
     add_vuspsi   :      0.06s CPU      0.06s WALL (     398 calls)

     General routines
     calbec       :      0.14s CPU      0.15s WALL (     858 calls)
     fft          :      0.17s CPU      0.17s WALL (      33 calls)
     ffts         :      0.00s CPU      0.00s WALL (       6 calls)
     fftw         :      1.86s CPU      1.90s WALL (   10376 calls)

     Parallel routines

     PWSCF        :      4.56s CPU      4.65s WALL


   This run was terminated on:  23:55:45   7Oct2025            

=------------------------------------------------------------------------------=
   JOB DONE.
=------------------------------------------------------------------------------=
