
     Program PWSCF v.7.4.1 starts on 21Oct2025 at  0:43: 2 

     This program is part of the open-source Quantum ESPRESSO suite
     for quantum simulation of materials; please cite
         "P. Giannozzi et al., J. Phys.:Condens. Matter 21 395502 (2009);
         "P. Giannozzi et al., J. Phys.:Condens. Matter 29 465901 (2017);
         "P. Giannozzi et al., J. Chem. Phys. 152 154105 (2020);
          URL http://www.quantum-espresso.org", 
     in publications or presentations arising from this work. More details at
     http://www.quantum-espresso.org/quote

     Parallel version (MPI), running on     2 processors

     MPI processes distributed on     1 nodes
     171 MiB available memory on the printing compute node when the environment starts

     Waiting for input...
     Reading input from standard input
Warning: card &CELL ignored
Warning: card / ignored

     Current dimensions of program PWSCF are:
     Max number of different atomic species (ntypx) = 10
     Max number of k-points (npk) =  40000
     Max angular momentum in pseudopotentials (lmaxx) =  4
     file Fe.pbe-nd-rrkjus.UPF: wavefunction(s)  4S renormalized
     Message from routine setup:
     using ibrav=0 with symmetry is DISCOURAGED, use correct ibrav instead

     R & G space division:  proc/nbgrp/npool/nimage =       2
     Subspace diagonalization in iterative solution of the eigenvalue problem:
     a serial algorithm will be used


     Parallelization info
     --------------------
     sticks:   dense  smooth     PW     G-vecs:    dense   smooth      PW
     Min         172      68     34                 2046      527     190
     Max         173      69     35                 2047      528     191
     Sum         345     137     69                 4093     1055     381

     Using Slab Decomposition



     bravais-lattice index     =            0
     lattice parameter (alat)  =       3.9277  a.u.
     unit-cell volume          =      46.6445 (a.u.)^3
     number of atoms/cell      =            1
     number of atomic types    =            1
     number of electrons       =         8.00
     number of Kohn-Sham states=            8
     kinetic-energy cutoff     =      30.0000  Ry
     charge density cutoff     =     300.0000  Ry
     scf convergence threshold =      1.0E-07
     mixing beta               =       0.5000
     number of iterations used =            8  plain     mixing
     Exchange-correlation=  SLA  PW   PBE  PBE
                           (   1   4   3   4   0   0   0)

     celldm(1)=   3.927722  celldm(2)=   0.000000  celldm(3)=   0.000000
     celldm(4)=   0.000000  celldm(5)=   0.000000  celldm(6)=   0.000000

     crystal axes: (cart. coord. in units of alat)
               a(1) = (  -0.577350   0.577350   0.577350 )  
               a(2) = (   0.577350  -0.577350   0.577350 )  
               a(3) = (   0.577350   0.577350  -0.577350 )  

     reciprocal axes: (cart. coord. in units 2 pi/alat)
               b(1) = (  0.000000  0.866025  0.866025 )  
               b(2) = (  0.866025  0.000000  0.866025 )  
               b(3) = (  0.866025  0.866025  0.000000 )  


     PseudoPot. # 1 for Fe read from file:
     /home/bond/Software/QE/qe-7.4.1/pseudo/Fe.pbe-nd-rrkjus.UPF
     MD5 check sum: 398036227a04b607635f6f5e8dfd8242
     Pseudo is Ultrasoft + core correction, Zval =  8.0
     Generated by new atomic code, or converted to UPF format
     Using radial grid of  957 points,  6 beta functions with: 
                l(1) =   0
                l(2) =   0
                l(3) =   1
                l(4) =   1
                l(5) =   2
                l(6) =   2
     Q(r) pseudized with 0 coefficients 


     atomic species   valence    mass     pseudopotential
     Fe                8.00    55.84500     Fe( 1.00)

     Starting magnetic structure 
     atomic species   magnetization
     Fe              0.700

     48 Sym. Ops., with inversion, found



   Cartesian axes

     site n.     atom                  positions (alat units)
         1        Fe     tau(   1) = (   0.0000000   0.0000000   0.0000000  )

     number of k points=   104  Methfessel-Paxton smearing, width (Ry)=  0.0200

     Number of k-points >= 100: set verbosity='high' to print them.

     Dense  grid:     4093 G-vectors     FFT dimensions: (  24,  24,  24)

     Smooth grid:     1055 G-vectors     FFT dimensions: (  15,  15,  15)

     Estimated max dynamical RAM per process >      11.56 MB

     Estimated total dynamical RAM >      23.13 MB
     Generating pointlists ...
     new r_m :   0.4125 (alat units)  1.6202 (a.u.) for type    1

     Initial potential from superposition of free atoms

     starting charge       7.9994, renormalised to       8.0000
     Starting wfcs are    6 randomized atomic wfcs +    2 random wfcs

     total cpu time spent up to now is        1.0 secs

     Self-consistent Calculation

     iteration #  1     ecut=    30.00 Ry     beta= 0.50
     Davidson diagonalization with overlap
     ethr =  1.00E-02,  avg # of iterations =  4.6

     total cpu time spent up to now is        1.8 secs

     total energy              =     -55.50453005 Ry
     estimated scf accuracy    <       0.24275420 Ry

     total magnetization       =     2.34 Bohr mag/cell
     absolute magnetization    =     2.34 Bohr mag/cell

     iteration #  2     ecut=    30.00 Ry     beta= 0.50
     Davidson diagonalization with overlap
     ethr =  3.03E-03,  avg # of iterations =  1.2

     total cpu time spent up to now is        2.3 secs

     total energy              =     -55.57797301 Ry
     estimated scf accuracy    <       0.03477839 Ry

     total magnetization       =     2.18 Bohr mag/cell
     absolute magnetization    =     2.18 Bohr mag/cell

     iteration #  3     ecut=    30.00 Ry     beta= 0.50
     Davidson diagonalization with overlap
     ethr =  4.35E-04,  avg # of iterations =  1.1

     total cpu time spent up to now is        2.7 secs

     total energy              =     -55.59630617 Ry
     estimated scf accuracy    <       0.01353977 Ry

     total magnetization       =     1.87 Bohr mag/cell
     absolute magnetization    =     1.87 Bohr mag/cell

     iteration #  4     ecut=    30.00 Ry     beta= 0.50
     Davidson diagonalization with overlap
     ethr =  1.69E-04,  avg # of iterations =  1.6

     total cpu time spent up to now is        3.1 secs

     total energy              =     -55.60801524 Ry
     estimated scf accuracy    <       0.00130671 Ry

     total magnetization       =     1.42 Bohr mag/cell
     absolute magnetization    =     1.47 Bohr mag/cell

     iteration #  5     ecut=    30.00 Ry     beta= 0.50
     Davidson diagonalization with overlap
     ethr =  1.63E-05,  avg # of iterations =  5.1

     total cpu time spent up to now is        3.8 secs

     total energy              =     -55.60882146 Ry
     estimated scf accuracy    <       0.00029704 Ry

     total magnetization       =     1.36 Bohr mag/cell
     absolute magnetization    =     1.41 Bohr mag/cell

     iteration #  6     ecut=    30.00 Ry     beta= 0.50
     Davidson diagonalization with overlap
     ethr =  3.71E-06,  avg # of iterations =  2.5

     total cpu time spent up to now is        4.3 secs

     total energy              =     -55.60887223 Ry
     estimated scf accuracy    <       0.00027194 Ry

     total magnetization       =     1.38 Bohr mag/cell
     absolute magnetization    =     1.42 Bohr mag/cell

     iteration #  7     ecut=    30.00 Ry     beta= 0.50
     Davidson diagonalization with overlap
     ethr =  3.40E-06,  avg # of iterations =  1.5

     total cpu time spent up to now is        4.7 secs

     total energy              =     -55.60911280 Ry
     estimated scf accuracy    <       0.00000495 Ry

     total magnetization       =     1.32 Bohr mag/cell
     absolute magnetization    =     1.35 Bohr mag/cell

     iteration #  8     ecut=    30.00 Ry     beta= 0.50
     Davidson diagonalization with overlap
     ethr =  6.19E-08,  avg # of iterations =  4.4

     total cpu time spent up to now is        5.4 secs

     total energy              =     -55.60911931 Ry
     estimated scf accuracy    <       0.00000022 Ry

     total magnetization       =     1.32 Bohr mag/cell
     absolute magnetization    =     1.36 Bohr mag/cell

     iteration #  9     ecut=    30.00 Ry     beta= 0.50
     Davidson diagonalization with overlap
     ethr =  2.71E-09,  avg # of iterations =  4.2

     total cpu time spent up to now is        6.1 secs

     total energy              =     -55.60911979 Ry
     estimated scf accuracy    <       0.00000024 Ry

     total magnetization       =     1.32 Bohr mag/cell
     absolute magnetization    =     1.36 Bohr mag/cell

     iteration # 10     ecut=    30.00 Ry     beta= 0.50
     Davidson diagonalization with overlap
     ethr =  2.71E-09,  avg # of iterations =  1.4

     Magnetic moment per site  (integrated on atomic sphere of radius R)
     atom   1 (R=0.413)  charge=  6.1483  magn=  1.3137

     total cpu time spent up to now is        6.5 secs

     End of self-consistent calculation

     Number of k-points >= 100: set verbosity='high' to print the bands.

     the Fermi energy is    24.9488 ev

!    total energy              =     -55.60911996 Ry
     estimated scf accuracy    <       0.00000002 Ry
     smearing contrib. (-TS)   =       0.00022506 Ry
     internal energy E=F+TS    =     -55.60934502 Ry

     The total energy is F=E-TS. E is the sum of the following terms:
     one-electron contribution =      18.49623896 Ry
     hartree contribution      =       4.18275662 Ry
     xc contribution           =     -26.93368975 Ry
     ewald contribution        =     -51.35465084 Ry

     total magnetization       =     1.32 Bohr mag/cell
     absolute magnetization    =     1.36 Bohr mag/cell

     convergence has been achieved in  10 iterations

     Forces acting on atoms (cartesian axes, Ry/au):

     atom    1 type  1   force =     0.00000000    0.00000000    0.00000000

     Total force =     0.000000     Total SCF correction =     0.000000


     Computing stress (Cartesian axis) and pressure

          total   stress  (Ry/bohr**3)                   (kbar)     P=     2874.24
   0.01953870   0.00000000   0.00000000         2874.24        0.00        0.00
   0.00000000   0.01953870   0.00000000            0.00     2874.24        0.00
   0.00000000   0.00000000   0.01953870            0.00        0.00     2874.24

     Message from routine punch:
     Nothing written, as per user request (disk_io='none')

     init_run     :      0.60s CPU      0.69s WALL (       1 calls)
     electrons    :      4.90s CPU      5.50s WALL (       1 calls)
     forces       :      0.05s CPU      0.05s WALL (       1 calls)
     stress       :      0.22s CPU      0.23s WALL (       1 calls)

     Called by init_run:
     wfcinit      :      0.18s CPU      0.22s WALL (       1 calls)
     potinit      :      0.05s CPU      0.05s WALL (       1 calls)
     hinit0       :      0.35s CPU      0.39s WALL (       1 calls)

     Called by electrons:
     c_bands      :      4.03s CPU      4.54s WALL (      10 calls)
     sum_band     :      0.69s CPU      0.76s WALL (      10 calls)
     v_of_rho     :      0.11s CPU      0.11s WALL (      11 calls)
     newd         :      0.09s CPU      0.10s WALL (      11 calls)
     mix_rho      :      0.01s CPU      0.01s WALL (      10 calls)

     Called by c_bands:
     init_us_2    :      0.13s CPU      0.15s WALL (    4784 calls)
     cegterg      :      3.74s CPU      4.22s WALL (    2080 calls)

     Called by *egterg:
     cdiaghg      :      0.68s CPU      0.77s WALL (    7808 calls)
     h_psi        :      2.58s CPU      2.93s WALL (    8016 calls)
     s_psi        :      0.05s CPU      0.06s WALL (    8016 calls)
     g_psi        :      0.02s CPU      0.02s WALL (    5728 calls)

     Called by h_psi:
     h_psi:calbec :      0.18s CPU      0.20s WALL (    8016 calls)
     vloc_psi     :      2.27s CPU      2.57s WALL (    8016 calls)
     add_vuspsi   :      0.06s CPU      0.07s WALL (    8016 calls)

     General routines
     calbec       :      0.24s CPU      0.27s WALL (   13632 calls)
     fft          :      0.20s CPU      0.20s WALL (     313 calls)
     ffts         :      0.02s CPU      0.02s WALL (      42 calls)
     fftw         :      2.12s CPU      2.40s WALL (  103844 calls)
     interpolate  :      0.02s CPU      0.02s WALL (      22 calls)

     Parallel routines

     PWSCF        :      6.04s CPU      6.82s WALL


   This run was terminated on:   0:43: 9  21Oct2025            

=------------------------------------------------------------------------------=
   JOB DONE.
=------------------------------------------------------------------------------=
