
     Program PWSCF v.7.4.1 starts on 20Oct2025 at 18:32:48 

     This program is part of the open-source Quantum ESPRESSO suite
     for quantum simulation of materials; please cite
         "P. Giannozzi et al., J. Phys.:Condens. Matter 21 395502 (2009);
         "P. Giannozzi et al., J. Phys.:Condens. Matter 29 465901 (2017);
         "P. Giannozzi et al., J. Chem. Phys. 152 154105 (2020);
          URL http://www.quantum-espresso.org", 
     in publications or presentations arising from this work. More details at
     http://www.quantum-espresso.org/quote

     Parallel version (MPI), running on     2 processors

     MPI processes distributed on     1 nodes
     313 MiB available memory on the printing compute node when the environment starts

     Waiting for input...
     Reading input from standard input

     Current dimensions of program PWSCF are:
     Max number of different atomic species (ntypx) = 10
     Max number of k-points (npk) =  40000
     Max angular momentum in pseudopotentials (lmaxx) =  4
     file Fe.pbe-nd-rrkjus.UPF: wavefunction(s)  4S renormalized
     Message from routine find_sym:
     Not a group! Trying with lower acceptance parameter...
     Message from routine find_sym:
     Symmetry operations form a group
     Message from routine setup:
     using ibrav=0 with symmetry is DISCOURAGED, use correct ibrav instead

     R & G space division:  proc/nbgrp/npool/nimage =       2
     Subspace diagonalization in iterative solution of the eigenvalue problem:
     a serial algorithm will be used


     Parallelization info
     --------------------
     sticks:   dense  smooth     PW     G-vecs:    dense   smooth      PW
     Min         273     105     36                 7823     1983     380
     Max         274     106     37                 7826     1986     381
     Sum         547     211     73                15649     3969     761

     Using Slab Decomposition



     bravais-lattice index     =            0
     lattice parameter (alat)  =       5.1023  a.u.
     unit-cell volume          =     178.9386 (a.u.)^3
     number of atoms/cell      =            2
     number of atomic types    =            1
     number of electrons       =        16.00
     number of Kohn-Sham states=           12
     kinetic-energy cutoff     =      30.0000  Ry
     charge density cutoff     =     300.0000  Ry
     scf convergence threshold =      1.0E-07
     mixing beta               =       0.5000
     number of iterations used =            8  plain     mixing
     energy convergence thresh.=      1.0E-04
     force convergence thresh. =      1.0E-03
     press convergence thresh. =      5.0E-01
     Exchange-correlation=  SLA  PW   PBE  PBE
                           (   1   4   3   4   0   0   0)
     nstep                     =           50


     celldm(1)=   5.102261  celldm(2)=   0.000000  celldm(3)=   0.000000
     celldm(4)=   0.000000  celldm(5)=   0.000000  celldm(6)=   0.000000

     crystal axes: (cart. coord. in units of alat)
               a(1) = (   1.000000   0.000000   0.000000 )  
               a(2) = (  -0.500000   0.866025   0.000000 )  
               a(3) = (   0.000000   0.000000   1.555556 )  

     reciprocal axes: (cart. coord. in units 2 pi/alat)
               b(1) = (  1.000000  0.577350 -0.000000 )  
               b(2) = (  0.000000  1.154701  0.000000 )  
               b(3) = (  0.000000 -0.000000  0.642857 )  


     PseudoPot. # 1 for Fe read from file:
     /home/bond/Software/QE/qe-7.4.1/pseudo/Fe.pbe-nd-rrkjus.UPF
     MD5 check sum: 398036227a04b607635f6f5e8dfd8242
     Pseudo is Ultrasoft + core correction, Zval =  8.0
     Generated by new atomic code, or converted to UPF format
     Using radial grid of  957 points,  6 beta functions with: 
                l(1) =   0
                l(2) =   0
                l(3) =   1
                l(4) =   1
                l(5) =   2
                l(6) =   2
     Q(r) pseudized with 0 coefficients 


     atomic species   valence    mass     pseudopotential
     Fe                8.00    55.84500     Fe( 1.00)

     Starting magnetic structure 
     atomic species   magnetization
     Fe              0.700

      4 Sym. Ops. (no inversion) found



   Cartesian axes

     site n.     atom                  positions (alat units)
         1        Fe     tau(   1) = (   0.0000000   0.0000000   0.0000000  )
         2        Fe     tau(   2) = (   0.0000000   0.5773519   0.7777778  )

     number of k points=   228  Methfessel-Paxton smearing, width (Ry)=  0.0200

     Number of k-points >= 100: set verbosity='high' to print them.

     Dense  grid:    15649 G-vectors     FFT dimensions: (  30,  30,  45)

     Smooth grid:     3969 G-vectors     FFT dimensions: (  18,  18,  27)

     Estimated max dynamical RAM per process >      55.66 MB

     Estimated total dynamical RAM >     111.32 MB

     Check: negative core charge=   -0.000008
     Generating pointlists ...
     new r_m :   0.3996 (alat units)  2.0387 (a.u.) for type    1

     Initial potential from superposition of free atoms

     starting charge      15.9987, renormalised to      16.0000
     Starting wfcs are   12 randomized atomic wfcs

     total cpu time spent up to now is        1.6 secs

     Self-consistent Calculation

     iteration #  1     ecut=    30.00 Ry     beta= 0.50
     Davidson diagonalization with overlap
     ethr =  1.00E-02,  avg # of iterations =  3.9

     total cpu time spent up to now is        4.5 secs

     total energy              =    -111.34012848 Ry
     estimated scf accuracy    <       0.57172796 Ry

     total magnetization       =     6.87 Bohr mag/cell
     absolute magnetization    =     6.87 Bohr mag/cell

     iteration #  2     ecut=    30.00 Ry     beta= 0.50
     Davidson diagonalization with overlap
     ethr =  3.57E-03,  avg # of iterations =  2.1

     total cpu time spent up to now is        7.0 secs

     total energy              =    -111.52837738 Ry
     estimated scf accuracy    <       0.06489849 Ry

     total magnetization       =     6.09 Bohr mag/cell
     absolute magnetization    =     6.11 Bohr mag/cell

     iteration #  3     ecut=    30.00 Ry     beta= 0.50
     Davidson diagonalization with overlap
     ethr =  4.06E-04,  avg # of iterations =  1.6

     total cpu time spent up to now is        9.3 secs

     total energy              =    -111.56082689 Ry
     estimated scf accuracy    <       0.01083858 Ry

     total magnetization       =     6.01 Bohr mag/cell
     absolute magnetization    =     6.07 Bohr mag/cell

     iteration #  4     ecut=    30.00 Ry     beta= 0.50
     Davidson diagonalization with overlap
     ethr =  6.77E-05,  avg # of iterations =  2.6

     total cpu time spent up to now is       11.7 secs

     total energy              =    -111.56783671 Ry
     estimated scf accuracy    <       0.01497193 Ry

     total magnetization       =     5.58 Bohr mag/cell
     absolute magnetization    =     5.80 Bohr mag/cell

     iteration #  5     ecut=    30.00 Ry     beta= 0.50
     Davidson diagonalization with overlap
     ethr =  6.77E-05,  avg # of iterations =  1.0

     total cpu time spent up to now is       13.7 secs

     total energy              =    -111.56883474 Ry
     estimated scf accuracy    <       0.00152171 Ry

     total magnetization       =     5.57 Bohr mag/cell
     absolute magnetization    =     5.80 Bohr mag/cell

     iteration #  6     ecut=    30.00 Ry     beta= 0.50
     Davidson diagonalization with overlap
     ethr =  9.51E-06,  avg # of iterations =  1.9

     total cpu time spent up to now is       16.0 secs

     total energy              =    -111.56925159 Ry
     estimated scf accuracy    <       0.00009068 Ry

     total magnetization       =     5.52 Bohr mag/cell
     absolute magnetization    =     5.78 Bohr mag/cell

     iteration #  7     ecut=    30.00 Ry     beta= 0.50
     Davidson diagonalization with overlap
     ethr =  5.67E-07,  avg # of iterations =  4.7

     total cpu time spent up to now is       19.3 secs

     total energy              =    -111.56931515 Ry
     estimated scf accuracy    <       0.00003810 Ry

     total magnetization       =     5.51 Bohr mag/cell
     absolute magnetization    =     5.78 Bohr mag/cell

     iteration #  8     ecut=    30.00 Ry     beta= 0.50
     Davidson diagonalization with overlap
     ethr =  2.38E-07,  avg # of iterations =  2.9

     total cpu time spent up to now is       22.1 secs

     total energy              =    -111.56933881 Ry
     estimated scf accuracy    <       0.00000476 Ry

     total magnetization       =     5.50 Bohr mag/cell
     absolute magnetization    =     5.78 Bohr mag/cell

     iteration #  9     ecut=    30.00 Ry     beta= 0.50
     Davidson diagonalization with overlap
     ethr =  2.97E-08,  avg # of iterations =  5.9

     total cpu time spent up to now is       26.4 secs

     total energy              =    -111.56934421 Ry
     estimated scf accuracy    <       0.00000086 Ry

     total magnetization       =     5.50 Bohr mag/cell
     absolute magnetization    =     5.79 Bohr mag/cell

     iteration # 10     ecut=    30.00 Ry     beta= 0.50
     Davidson diagonalization with overlap
     ethr =  5.36E-09,  avg # of iterations =  4.2

     total cpu time spent up to now is       29.5 secs

     total energy              =    -111.56934431 Ry
     estimated scf accuracy    <       0.00000107 Ry

     total magnetization       =     5.50 Bohr mag/cell
     absolute magnetization    =     5.79 Bohr mag/cell

     iteration # 11     ecut=    30.00 Ry     beta= 0.50
     Davidson diagonalization with overlap
     ethr =  5.36E-09,  avg # of iterations =  2.6

     Magnetic moment per site  (integrated on atomic sphere of radius R)
     atom   1 (R=0.400)  charge=  6.6264  magn=  2.8111
     atom   2 (R=0.400)  charge=  6.6257  magn=  2.8111

     total cpu time spent up to now is       32.1 secs

     End of self-consistent calculation

     Number of k-points >= 100: set verbosity='high' to print the bands.

     the Fermi energy is    11.5947 ev

!    total energy              =    -111.56934464 Ry
     estimated scf accuracy    <       0.00000005 Ry
     smearing contrib. (-TS)   =      -0.00008939 Ry
     internal energy E=F+TS    =    -111.56925525 Ry

     The total energy is F=E-TS. E is the sum of the following terms:
     one-electron contribution =       9.10420990 Ry
     hartree contribution      =      14.78810763 Ry
     xc contribution           =     -52.83320873 Ry
     ewald contribution        =     -82.62836405 Ry

     total magnetization       =     5.50 Bohr mag/cell
     absolute magnetization    =     5.79 Bohr mag/cell

     convergence has been achieved in  11 iterations

     Forces acting on atoms (cartesian axes, Ry/au):

     atom    1 type  1   force =     0.00000000   -0.00000367    0.00000000
     atom    2 type  1   force =     0.00000000    0.00000367    0.00000000

     Total force =     0.000005     Total SCF correction =     0.000003
     SCF correction compared to forces is large: reduce conv_thr to get better values


     Computing stress (Cartesian axis) and pressure

          total   stress  (Ry/bohr**3)                   (kbar)     P=     -107.99
  -0.00097738   0.00000000   0.00000000         -143.78        0.00        0.00
   0.00000000  -0.00097740   0.00000000            0.00     -143.78        0.00
   0.00000000   0.00000000  -0.00024758            0.00        0.00      -36.42


     BFGS Geometry Optimization
     Energy error            =      9.3E-03 Ry
     Gradient error          =      3.7E-06 Ry/Bohr
     Cell gradient error     =      1.4E+02 kbar

     number of scf cycles    =   1
     number of bfgs steps    =   0

     enthalpy           new  =    -111.5693446441 Ry

     new trust radius        =       0.0653724033 bohr
     new conv_thr            =       0.0000001000 Ry

     new unit-cell volume =    169.24669 a.u.^3 (    25.07977 Ang^3 )
     density =      7.39503 g/cm^3

CELL_PARAMETERS (angstrom)
   2.634026556   0.000000000   0.000000000
  -1.317013278   2.281132986   0.000000000
   0.000000000   0.000000000   4.174003655

ATOMIC_POSITIONS (angstrom)
Fe               0.0000000000       -0.0000018954        0.0000000000
Fe               0.0000000000        1.5207613881        2.0870018274


     Message from routine punch:
     Nothing written, as per user request (disk_io='none')
     NEW-OLD atomic charge density approx. for the potential
     New effective cutoffs (rho, wfc):  315.06   31.52

     Check: negative core charge=   -0.000005
     Generating pointlists ...
     new r_m :   0.3945 (alat units)  2.0129 (a.u.) for type    1

     total cpu time spent up to now is       33.2 secs

     Self-consistent Calculation

     iteration #  1     ecut=    30.00 Ry     beta= 0.50
     Davidson diagonalization with overlap
     ethr =  1.00E-06,  avg # of iterations =  6.4

     total cpu time spent up to now is       38.5 secs

     total energy              =    -111.57552264 Ry
     estimated scf accuracy    <       0.00038469 Ry

     total magnetization       =     5.44 Bohr mag/cell
     absolute magnetization    =     5.72 Bohr mag/cell

     iteration #  2     ecut=    30.00 Ry     beta= 0.50
     Davidson diagonalization with overlap
     ethr =  2.40E-06,  avg # of iterations =  1.3

     total cpu time spent up to now is       40.6 secs

     total energy              =    -111.57561809 Ry
     estimated scf accuracy    <       0.00012963 Ry

     total magnetization       =     5.44 Bohr mag/cell
     absolute magnetization    =     5.71 Bohr mag/cell

     iteration #  3     ecut=    30.00 Ry     beta= 0.50
     Davidson diagonalization with overlap
     ethr =  8.10E-07,  avg # of iterations =  1.7

     total cpu time spent up to now is       42.8 secs

     total energy              =    -111.57565203 Ry
     estimated scf accuracy    <       0.00003332 Ry

     total magnetization       =     5.43 Bohr mag/cell
     absolute magnetization    =     5.69 Bohr mag/cell

     iteration #  4     ecut=    30.00 Ry     beta= 0.50
     Davidson diagonalization with overlap
     ethr =  2.08E-07,  avg # of iterations =  2.5

     total cpu time spent up to now is       45.4 secs

     total energy              =    -111.57565783 Ry
     estimated scf accuracy    <       0.00013650 Ry

     total magnetization       =     5.43 Bohr mag/cell
     absolute magnetization    =     5.68 Bohr mag/cell

     iteration #  5     ecut=    30.00 Ry     beta= 0.50
     Davidson diagonalization with overlap
     ethr =  2.08E-07,  avg # of iterations =  1.0

     total cpu time spent up to now is       47.5 secs

     total energy              =    -111.57566826 Ry
     estimated scf accuracy    <       0.00000358 Ry

     total magnetization       =     5.43 Bohr mag/cell
     absolute magnetization    =     5.68 Bohr mag/cell

     iteration #  6     ecut=    30.00 Ry     beta= 0.50
     Davidson diagonalization with overlap
     ethr =  2.24E-08,  avg # of iterations =  2.7

     total cpu time spent up to now is       50.1 secs

     total energy              =    -111.57567080 Ry
     estimated scf accuracy    <       0.00000048 Ry

     total magnetization       =     5.43 Bohr mag/cell
     absolute magnetization    =     5.68 Bohr mag/cell

     iteration #  7     ecut=    30.00 Ry     beta= 0.50
     Davidson diagonalization with overlap
     ethr =  3.02E-09,  avg # of iterations =  3.8

     total cpu time spent up to now is       53.0 secs

     total energy              =    -111.57567101 Ry
     estimated scf accuracy    <       0.00000020 Ry

     total magnetization       =     5.43 Bohr mag/cell
     absolute magnetization    =     5.68 Bohr mag/cell

     iteration #  8     ecut=    30.00 Ry     beta= 0.50
     Davidson diagonalization with overlap
     ethr =  1.28E-09,  avg # of iterations =  3.7

     Magnetic moment per site  (integrated on atomic sphere of radius R)
     atom   1 (R=0.395)  charge=  6.6236  magn=  2.7635
     atom   2 (R=0.395)  charge=  6.6229  magn=  2.7636

     total cpu time spent up to now is       55.8 secs

     End of self-consistent calculation

     Number of k-points >= 100: set verbosity='high' to print the bands.

     the Fermi energy is    12.3821 ev

!    total energy              =    -111.57567118 Ry
     estimated scf accuracy    <       0.00000001 Ry
     smearing contrib. (-TS)   =      -0.00001219 Ry
     internal energy E=F+TS    =    -111.57565899 Ry

     The total energy is F=E-TS. E is the sum of the following terms:
     one-electron contribution =      11.34151666 Ry
     hartree contribution      =      14.16707048 Ry
     xc contribution           =     -52.89112109 Ry
     ewald contribution        =     -84.19312505 Ry

     total magnetization       =     5.43 Bohr mag/cell
     absolute magnetization    =     5.68 Bohr mag/cell

     convergence has been achieved in   8 iterations

     Forces acting on atoms (cartesian axes, Ry/au):

     atom    1 type  1   force =     0.00000000   -0.00000042    0.00000000
     atom    2 type  1   force =     0.00000000    0.00000042    0.00000000

     Total force =     0.000001     Total SCF correction =     0.000000
     SCF correction compared to forces is large: reduce conv_thr to get better values


     Computing stress (Cartesian axis) and pressure

          total   stress  (Ry/bohr**3)                   (kbar)     P=      -32.81
  -0.00047947   0.00000000   0.00000000          -70.53        0.00        0.00
   0.00000000  -0.00047951   0.00000000            0.00      -70.54        0.00
   0.00000000   0.00000000   0.00028976            0.00        0.00       42.63

     Energy error            =      6.3E-03 Ry
     Gradient error          =      4.2E-07 Ry/Bohr
     Cell gradient error     =      7.1E+01 kbar

     number of scf cycles    =   2
     number of bfgs steps    =   1

     enthalpy           old  =    -111.5693446441 Ry
     enthalpy           new  =    -111.5756711814 Ry

     CASE: enthalpy          _new < enthalpy          _old

     new trust radius        =       0.0690862843 bohr
     new conv_thr            =       0.0000000010 Ry

     new unit-cell volume =    162.08671 a.u.^3 (    24.01877 Ang^3 )
     density =      7.72169 g/cm^3

CELL_PARAMETERS (angstrom)
   2.564091869   0.000000000   0.000000000
  -1.282045935   2.220563714   0.000000000
   0.000000000   0.000000000   4.218460463

ATOMIC_POSITIONS (angstrom)
Fe               0.0000000000       -0.0000026325        0.0000000000
Fe               0.0000000000        1.4803824997        2.1092302313


     Message from routine punch:
     Nothing written, as per user request (disk_io='none')
     NEW-OLD atomic charge density approx. for the potential
     New effective cutoffs (rho, wfc):  332.44   33.26

     Check: negative core charge=   -0.000003
     Generating pointlists ...

     total cpu time spent up to now is       56.9 secs

     Self-consistent Calculation

     iteration #  1     ecut=    30.00 Ry     beta= 0.50
     Davidson diagonalization with overlap
     ethr =  1.00E-06,  avg # of iterations =  7.1

     total cpu time spent up to now is       62.5 secs

     total energy              =    -111.57846578 Ry
     estimated scf accuracy    <       0.00066285 Ry

     total magnetization       =     5.36 Bohr mag/cell
     absolute magnetization    =     5.60 Bohr mag/cell

     iteration #  2     ecut=    30.00 Ry     beta= 0.50
     Davidson diagonalization with overlap
     ethr =  4.14E-06,  avg # of iterations =  1.0

     total cpu time spent up to now is       64.5 secs

     total energy              =    -111.57863950 Ry
     estimated scf accuracy    <       0.00024491 Ry

     total magnetization       =     5.34 Bohr mag/cell
     absolute magnetization    =     5.58 Bohr mag/cell

     iteration #  3     ecut=    30.00 Ry     beta= 0.50
     Davidson diagonalization with overlap
     ethr =  1.53E-06,  avg # of iterations =  2.0

     total cpu time spent up to now is       66.9 secs

     total energy              =    -111.57855369 Ry
     estimated scf accuracy    <       0.00209573 Ry

     total magnetization       =     5.32 Bohr mag/cell
     absolute magnetization    =     5.55 Bohr mag/cell

     iteration #  4     ecut=    30.00 Ry     beta= 0.50
     Davidson diagonalization with overlap
     ethr =  1.53E-06,  avg # of iterations =  1.4

     total cpu time spent up to now is       69.0 secs

     total energy              =    -111.57873845 Ry
     estimated scf accuracy    <       0.00018952 Ry

     total magnetization       =     5.32 Bohr mag/cell
     absolute magnetization    =     5.55 Bohr mag/cell

     iteration #  5     ecut=    30.00 Ry     beta= 0.50
     Davidson diagonalization with overlap
     ethr =  1.18E-06,  avg # of iterations =  1.0

     total cpu time spent up to now is       71.1 secs

     total energy              =    -111.57876534 Ry
     estimated scf accuracy    <       0.00000768 Ry

     total magnetization       =     5.31 Bohr mag/cell
     absolute magnetization    =     5.54 Bohr mag/cell

     iteration #  6     ecut=    30.00 Ry     beta= 0.50
     Davidson diagonalization with overlap
     ethr =  4.80E-08,  avg # of iterations =  3.3

     total cpu time spent up to now is       73.9 secs

     total energy              =    -111.57877361 Ry
     estimated scf accuracy    <       0.00000077 Ry

     total magnetization       =     5.30 Bohr mag/cell
     absolute magnetization    =     5.53 Bohr mag/cell

     iteration #  7     ecut=    30.00 Ry     beta= 0.50
     Davidson diagonalization with overlap
     ethr =  4.80E-09,  avg # of iterations =  4.3

     total cpu time spent up to now is       77.2 secs

     total energy              =    -111.57877455 Ry
     estimated scf accuracy    <       0.00000014 Ry

     total magnetization       =     5.30 Bohr mag/cell
     absolute magnetization    =     5.52 Bohr mag/cell

     iteration #  8     ecut=    30.00 Ry     beta= 0.50
     Davidson diagonalization with overlap
     ethr =  8.88E-10,  avg # of iterations =  4.7

     total cpu time spent up to now is       80.4 secs

     total energy              =    -111.57877467 Ry
     estimated scf accuracy    <          2.3E-09 Ry

     total magnetization       =     5.30 Bohr mag/cell
     absolute magnetization    =     5.52 Bohr mag/cell

     iteration #  9     ecut=    30.00 Ry     beta= 0.50
     Davidson diagonalization with overlap
     ethr =  1.41E-11,  avg # of iterations =  8.4

     Magnetic moment per site  (integrated on atomic sphere of radius R)
     atom   1 (R=0.395)  charge=  6.6787  magn=  2.6935
     atom   2 (R=0.395)  charge=  6.6779  magn=  2.6934

     total cpu time spent up to now is       86.1 secs

     End of self-consistent calculation

     Number of k-points >= 100: set verbosity='high' to print the bands.

     the Fermi energy is    12.9957 ev

!    total energy              =    -111.57877469 Ry
     estimated scf accuracy    <          7.4E-10 Ry
     smearing contrib. (-TS)   =      -0.00037029 Ry
     internal energy E=F+TS    =    -111.57840441 Ry

     The total energy is F=E-TS. E is the sum of the following terms:
     one-electron contribution =      13.08942698 Ry
     hartree contribution      =      13.69029565 Ry
     xc contribution           =     -52.93188562 Ry
     ewald contribution        =     -85.42624141 Ry

     total magnetization       =     5.30 Bohr mag/cell
     absolute magnetization    =     5.52 Bohr mag/cell

     convergence has been achieved in   9 iterations

     Forces acting on atoms (cartesian axes, Ry/au):

     atom    1 type  1   force =     0.00000000   -0.00000103    0.00000000
     atom    2 type  1   force =    -0.00000000    0.00000103    0.00000000

     Total force =     0.000001     Total SCF correction =     0.000000


     Computing stress (Cartesian axis) and pressure

          total   stress  (Ry/bohr**3)                   (kbar)     P=       27.76
  -0.00003321   0.00000000  -0.00000000           -4.89        0.00       -0.00
   0.00000000  -0.00003327   0.00000000            0.00       -4.89        0.00
  -0.00000000   0.00000000   0.00063266           -0.00        0.00       93.07

     Energy error            =      3.1E-03 Ry
     Gradient error          =      1.0E-06 Ry/Bohr
     Cell gradient error     =      9.3E+01 kbar

     number of scf cycles    =   3
     number of bfgs steps    =   2

     enthalpy           old  =    -111.5756711814 Ry
     enthalpy           new  =    -111.5787746920 Ry

     CASE: enthalpy          _new < enthalpy          _old

     new trust radius        =       0.0550594884 bohr
     new conv_thr            =       0.0000000010 Ry

     new unit-cell volume =    159.97058 a.u.^3 (    23.70519 Ang^3 )
     density =      7.82384 g/cm^3

CELL_PARAMETERS (angstrom)
   2.520200534   0.000000000   0.000000000
  -1.260100267   2.182546472   0.000000000
  -0.000000000   0.000000000   4.309678864

ATOMIC_POSITIONS (angstrom)
Fe               0.0000000000       -0.0000040112       -0.0000000000
Fe              -0.0000000000        1.4550389809        2.1548394320


     Message from routine punch:
     Nothing written, as per user request (disk_io='none')
     NEW-OLD atomic charge density approx. for the potential
     New effective cutoffs (rho, wfc):  344.07   34.43

     Check: negative core charge=   -0.000002
     Generating pointlists ...
     new r_m :   0.3850 (alat units)  1.9645 (a.u.) for type    1

     total cpu time spent up to now is       87.1 secs

     Self-consistent Calculation

     iteration #  1     ecut=    30.00 Ry     beta= 0.50
     Davidson diagonalization with overlap
     ethr =  1.00E-06,  avg # of iterations =  6.8

     total cpu time spent up to now is       92.5 secs

     total energy              =    -111.58017782 Ry
     estimated scf accuracy    <       0.00043557 Ry

     total magnetization       =     5.22 Bohr mag/cell
     absolute magnetization    =     5.45 Bohr mag/cell

     iteration #  2     ecut=    30.00 Ry     beta= 0.50
     Davidson diagonalization with overlap
     ethr =  2.72E-06,  avg # of iterations =  1.0

     total cpu time spent up to now is       94.5 secs

     total energy              =    -111.58029883 Ry
     estimated scf accuracy    <       0.00015573 Ry

     total magnetization       =     5.21 Bohr mag/cell
     absolute magnetization    =     5.43 Bohr mag/cell

     iteration #  3     ecut=    30.00 Ry     beta= 0.50
     Davidson diagonalization with overlap
     ethr =  9.73E-07,  avg # of iterations =  2.0

     total cpu time spent up to now is       96.8 secs

     total energy              =    -111.58024443 Ry
     estimated scf accuracy    <       0.00127442 Ry

     total magnetization       =     5.20 Bohr mag/cell
     absolute magnetization    =     5.42 Bohr mag/cell

     iteration #  4     ecut=    30.00 Ry     beta= 0.50
     Davidson diagonalization with overlap
     ethr =  9.73E-07,  avg # of iterations =  1.2

     total cpu time spent up to now is       98.8 secs

     total energy              =    -111.58035107 Ry
     estimated scf accuracy    <       0.00011717 Ry

     total magnetization       =     5.19 Bohr mag/cell
     absolute magnetization    =     5.42 Bohr mag/cell

     iteration #  5     ecut=    30.00 Ry     beta= 0.50
     Davidson diagonalization with overlap
     ethr =  7.32E-07,  avg # of iterations =  1.0

     total cpu time spent up to now is      100.8 secs

     total energy              =    -111.58036432 Ry
     estimated scf accuracy    <       0.00000307 Ry

     total magnetization       =     5.19 Bohr mag/cell
     absolute magnetization    =     5.41 Bohr mag/cell

     iteration #  6     ecut=    30.00 Ry     beta= 0.50
     Davidson diagonalization with overlap
     ethr =  1.92E-08,  avg # of iterations =  3.7

     total cpu time spent up to now is      103.7 secs

     total energy              =    -111.58036696 Ry
     estimated scf accuracy    <       0.00000031 Ry

     total magnetization       =     5.19 Bohr mag/cell
     absolute magnetization    =     5.41 Bohr mag/cell

     iteration #  7     ecut=    30.00 Ry     beta= 0.50
     Davidson diagonalization with overlap
     ethr =  1.97E-09,  avg # of iterations =  5.1

     total cpu time spent up to now is      107.3 secs

     total energy              =    -111.58036743 Ry
     estimated scf accuracy    <       0.00000002 Ry

     total magnetization       =     5.19 Bohr mag/cell
     absolute magnetization    =     5.41 Bohr mag/cell

     iteration #  8     ecut=    30.00 Ry     beta= 0.50
     Davidson diagonalization with overlap
     ethr =  1.54E-10,  avg # of iterations =  5.5

     total cpu time spent up to now is      111.0 secs

     total energy              =    -111.58036748 Ry
     estimated scf accuracy    <          3.1E-09 Ry

     total magnetization       =     5.19 Bohr mag/cell
     absolute magnetization    =     5.41 Bohr mag/cell

     iteration #  9     ecut=    30.00 Ry     beta= 0.50
     Davidson diagonalization with overlap
     ethr =  1.93E-11,  avg # of iterations =  4.6

     Magnetic moment per site  (integrated on atomic sphere of radius R)
     atom   1 (R=0.385)  charge=  6.5619  magn=  2.6341
     atom   2 (R=0.385)  charge=  6.5622  magn=  2.6341

     total cpu time spent up to now is      114.3 secs

     End of self-consistent calculation

     Number of k-points >= 100: set verbosity='high' to print the bands.

     the Fermi energy is    13.1564 ev

!    total energy              =    -111.58036749 Ry
     estimated scf accuracy    <          1.7E-10 Ry
     smearing contrib. (-TS)   =      -0.00001693 Ry
     internal energy E=F+TS    =    -111.58035056 Ry

     The total energy is F=E-TS. E is the sum of the following terms:
     one-electron contribution =      13.56387014 Ry
     hartree contribution      =      13.57396624 Ry
     xc contribution           =     -52.94174432 Ry
     ewald contribution        =     -85.77644261 Ry

     total magnetization       =     5.19 Bohr mag/cell
     absolute magnetization    =     5.41 Bohr mag/cell

     convergence has been achieved in   9 iterations

     Forces acting on atoms (cartesian axes, Ry/au):

     atom    1 type  1   force =     0.00000000   -0.00000154    0.00000000
     atom    2 type  1   force =    -0.00000000    0.00000154   -0.00000000

     Total force =     0.000002     Total SCF correction =     0.000000


     Computing stress (Cartesian axis) and pressure

          total   stress  (Ry/bohr**3)                   (kbar)     P=       41.43
   0.00019197  -0.00000000   0.00000000           28.24       -0.00        0.00
  -0.00000000   0.00019189  -0.00000000           -0.00       28.23       -0.00
   0.00000000  -0.00000000   0.00046097            0.00       -0.00       67.81

     Energy error            =      1.6E-03 Ry
     Gradient error          =      1.5E-06 Ry/Bohr
     Cell gradient error     =      6.8E+01 kbar

     number of scf cycles    =   4
     number of bfgs steps    =   3

     enthalpy           old  =    -111.5787746920 Ry
     enthalpy           new  =    -111.5803674859 Ry

     CASE: enthalpy          _new < enthalpy          _old

     new trust radius        =       0.0361703836 bohr
     new conv_thr            =       0.0000000010 Ry

     new unit-cell volume =    162.04304 a.u.^3 (    24.01230 Ang^3 )
     density =      7.72377 g/cm^3

CELL_PARAMETERS (angstrom)
   2.518534620   0.000000000   0.000000000
  -1.259267310   2.181097022   0.000000000
  -0.000000000   0.000000000   4.371302593

ATOMIC_POSITIONS (angstrom)
Fe               0.0000000000       -0.0000053714       -0.0000000000
Fe              -0.0000000000        1.4540740385        2.1856512965


     Message from routine punch:
     Nothing written, as per user request (disk_io='none')
     NEW-OLD atomic charge density approx. for the potential
     New effective cutoffs (rho, wfc):  344.51   34.48

     Check: negative core charge=   -0.000002
     Generating pointlists ...

     total cpu time spent up to now is      115.3 secs

     Self-consistent Calculation

     iteration #  1     ecut=    30.00 Ry     beta= 0.50
     Davidson diagonalization with overlap
     ethr =  1.00E-06,  avg # of iterations =  5.2

     total cpu time spent up to now is      119.8 secs

     total energy              =    -111.58100821 Ry
     estimated scf accuracy    <       0.00004873 Ry

     total magnetization       =     5.20 Bohr mag/cell
     absolute magnetization    =     5.42 Bohr mag/cell

     iteration #  2     ecut=    30.00 Ry     beta= 0.50
     Davidson diagonalization with overlap
     ethr =  3.05E-07,  avg # of iterations =  1.3

     total cpu time spent up to now is      121.8 secs

     total energy              =    -111.58101964 Ry
     estimated scf accuracy    <       0.00001678 Ry

     total magnetization       =     5.20 Bohr mag/cell
     absolute magnetization    =     5.42 Bohr mag/cell

     iteration #  3     ecut=    30.00 Ry     beta= 0.50
     Davidson diagonalization with overlap
     ethr =  1.05E-07,  avg # of iterations =  2.3

     total cpu time spent up to now is      124.3 secs

     total energy              =    -111.58100674 Ry
     estimated scf accuracy    <       0.00031333 Ry

     total magnetization       =     5.20 Bohr mag/cell
     absolute magnetization    =     5.42 Bohr mag/cell

     iteration #  4     ecut=    30.00 Ry     beta= 0.50
     Davidson diagonalization with overlap
     ethr =  1.05E-07,  avg # of iterations =  1.7

     total cpu time spent up to now is      126.5 secs

     total energy              =    -111.58102531 Ry
     estimated scf accuracy    <       0.00000279 Ry

     total magnetization       =     5.20 Bohr mag/cell
     absolute magnetization    =     5.42 Bohr mag/cell

     iteration #  5     ecut=    30.00 Ry     beta= 0.50
     Davidson diagonalization with overlap
     ethr =  1.75E-08,  avg # of iterations =  1.9

     total cpu time spent up to now is      128.9 secs

     total energy              =    -111.58102608 Ry
     estimated scf accuracy    <       0.00000031 Ry

     total magnetization       =     5.20 Bohr mag/cell
     absolute magnetization    =     5.42 Bohr mag/cell

     iteration #  6     ecut=    30.00 Ry     beta= 0.50
     Davidson diagonalization with overlap
     ethr =  1.92E-09,  avg # of iterations =  3.9

     total cpu time spent up to now is      131.9 secs

     total energy              =    -111.58102628 Ry
     estimated scf accuracy    <       0.00000003 Ry

     total magnetization       =     5.20 Bohr mag/cell
     absolute magnetization    =     5.42 Bohr mag/cell

     iteration #  7     ecut=    30.00 Ry     beta= 0.50
     Davidson diagonalization with overlap
     ethr =  1.75E-10,  avg # of iterations =  5.7

     total cpu time spent up to now is      135.9 secs

     total energy              =    -111.58102634 Ry
     estimated scf accuracy    <          4.6E-09 Ry

     total magnetization       =     5.20 Bohr mag/cell
     absolute magnetization    =     5.42 Bohr mag/cell

     iteration #  8     ecut=    30.00 Ry     beta= 0.50
     Davidson diagonalization with overlap
     ethr =  2.88E-11,  avg # of iterations =  4.3

     total cpu time spent up to now is      139.0 secs

     total energy              =    -111.58102634 Ry
     estimated scf accuracy    <          1.0E-09 Ry

     total magnetization       =     5.20 Bohr mag/cell
     absolute magnetization    =     5.42 Bohr mag/cell

     iteration #  9     ecut=    30.00 Ry     beta= 0.50
     Davidson diagonalization with overlap
     ethr =  6.39E-12,  avg # of iterations =  3.8

     Magnetic moment per site  (integrated on atomic sphere of radius R)
     atom   1 (R=0.385)  charge=  6.5483  magn=  2.6417
     atom   2 (R=0.385)  charge=  6.5488  magn=  2.6418

     total cpu time spent up to now is      141.7 secs

     End of self-consistent calculation

     Number of k-points >= 100: set verbosity='high' to print the bands.

     the Fermi energy is    12.9439 ev

!    total energy              =    -111.58102634 Ry
     estimated scf accuracy    <          1.8E-10 Ry
     smearing contrib. (-TS)   =       0.00000223 Ry
     internal energy E=F+TS    =    -111.58102857 Ry

     The total energy is F=E-TS. E is the sum of the following terms:
     one-electron contribution =      13.00586757 Ry
     hartree contribution      =      13.72996190 Ry
     xc contribution           =     -52.92802856 Ry
     ewald contribution        =     -85.38882948 Ry

     total magnetization       =     5.20 Bohr mag/cell
     absolute magnetization    =     5.42 Bohr mag/cell

     convergence has been achieved in   9 iterations

     Forces acting on atoms (cartesian axes, Ry/au):

     atom    1 type  1   force =     0.00000000   -0.00000194    0.00000000
     atom    2 type  1   force =    -0.00000000    0.00000194   -0.00000000

     Total force =     0.000003     Total SCF correction =     0.000000


     Computing stress (Cartesian axis) and pressure

          total   stress  (Ry/bohr**3)                   (kbar)     P=       18.80
   0.00011835  -0.00000000   0.00000000           17.41       -0.00        0.00
  -0.00000000   0.00011826  -0.00000000           -0.00       17.40       -0.00
   0.00000000  -0.00000000   0.00014674            0.00       -0.00       21.59

     Energy error            =      6.6E-04 Ry
     Gradient error          =      1.9E-06 Ry/Bohr
     Cell gradient error     =      2.2E+01 kbar

     number of scf cycles    =   5
     number of bfgs steps    =   4

     enthalpy           old  =    -111.5803674859 Ry
     enthalpy           new  =    -111.5810263410 Ry

     CASE: enthalpy          _new < enthalpy          _old

     new trust radius        =       0.0111293432 bohr
     new conv_thr            =       0.0000000010 Ry

     new unit-cell volume =    164.13249 a.u.^3 (    24.32193 Ang^3 )
     density =      7.62545 g/cm^3

CELL_PARAMETERS (angstrom)
   2.529544239   0.000000000   0.000000000
  -1.264772119   2.190623758   0.000000000
   0.000000000  -0.000000000   4.389225482

ATOMIC_POSITIONS (angstrom)
Fe              -0.0000000000       -0.0000067746       -0.0000000000
Fe               0.0000000000        1.4604266168        2.1946127411


     Message from routine punch:
     Nothing written, as per user request (disk_io='none')
     NEW-OLD atomic charge density approx. for the potential
     New effective cutoffs (rho, wfc):  341.52   34.18

     Check: negative core charge=   -0.000003
     Generating pointlists ...

     total cpu time spent up to now is      142.8 secs

     Self-consistent Calculation

     iteration #  1     ecut=    30.00 Ry     beta= 0.50
     Davidson diagonalization with overlap
     ethr =  1.00E-06,  avg # of iterations =  3.6

     total cpu time spent up to now is      146.4 secs

     total energy              =    -111.58112721 Ry
     estimated scf accuracy    <       0.00002137 Ry

     total magnetization       =     5.22 Bohr mag/cell
     absolute magnetization    =     5.45 Bohr mag/cell

     iteration #  2     ecut=    30.00 Ry     beta= 0.50
     Davidson diagonalization with overlap
     ethr =  1.34E-07,  avg # of iterations =  2.2

     total cpu time spent up to now is      148.9 secs

     total energy              =    -111.58113244 Ry
     estimated scf accuracy    <       0.00001187 Ry

     total magnetization       =     5.22 Bohr mag/cell
     absolute magnetization    =     5.45 Bohr mag/cell

     iteration #  3     ecut=    30.00 Ry     beta= 0.50
     Davidson diagonalization with overlap
     ethr =  7.42E-08,  avg # of iterations =  1.7

     total cpu time spent up to now is      151.1 secs

     total energy              =    -111.58112886 Ry
     estimated scf accuracy    <       0.00008684 Ry

     total magnetization       =     5.22 Bohr mag/cell
     absolute magnetization    =     5.45 Bohr mag/cell

     iteration #  4     ecut=    30.00 Ry     beta= 0.50
     Davidson diagonalization with overlap
     ethr =  7.42E-08,  avg # of iterations =  1.1

     total cpu time spent up to now is      153.1 secs

     total energy              =    -111.58113686 Ry
     estimated scf accuracy    <       0.00000863 Ry

     total magnetization       =     5.22 Bohr mag/cell
     absolute magnetization    =     5.45 Bohr mag/cell

     iteration #  5     ecut=    30.00 Ry     beta= 0.50
     Davidson diagonalization with overlap
     ethr =  5.40E-08,  avg # of iterations =  1.5

     total cpu time spent up to now is      155.2 secs

     total energy              =    -111.58113805 Ry
     estimated scf accuracy    <       0.00000037 Ry

     total magnetization       =     5.23 Bohr mag/cell
     absolute magnetization    =     5.46 Bohr mag/cell

     iteration #  6     ecut=    30.00 Ry     beta= 0.50
     Davidson diagonalization with overlap
     ethr =  2.33E-09,  avg # of iterations =  2.4

     total cpu time spent up to now is      157.8 secs

     total energy              =    -111.58113821 Ry
     estimated scf accuracy    <       0.00000004 Ry

     total magnetization       =     5.23 Bohr mag/cell
     absolute magnetization    =     5.46 Bohr mag/cell

     iteration #  7     ecut=    30.00 Ry     beta= 0.50
     Davidson diagonalization with overlap
     ethr =  2.79E-10,  avg # of iterations =  4.6

     total cpu time spent up to now is      161.0 secs

     total energy              =    -111.58113824 Ry
     estimated scf accuracy    <       0.00000001 Ry

     total magnetization       =     5.23 Bohr mag/cell
     absolute magnetization    =     5.46 Bohr mag/cell

     iteration #  8     ecut=    30.00 Ry     beta= 0.50
     Davidson diagonalization with overlap
     ethr =  8.00E-11,  avg # of iterations =  3.9

     Magnetic moment per site  (integrated on atomic sphere of radius R)
     atom   1 (R=0.385)  charge=  6.5328  magn=  2.6565
     atom   2 (R=0.385)  charge=  6.5335  magn=  2.6566

     total cpu time spent up to now is      163.9 secs

     End of self-consistent calculation

     Number of k-points >= 100: set verbosity='high' to print the bands.

     the Fermi energy is    12.7495 ev

!    total energy              =    -111.58113825 Ry
     estimated scf accuracy    <          2.1E-10 Ry
     smearing contrib. (-TS)   =      -0.00014826 Ry
     internal energy E=F+TS    =    -111.58098999 Ry

     The total energy is F=E-TS. E is the sum of the following terms:
     one-electron contribution =      12.49194945 Ry
     hartree contribution      =      13.86606108 Ry
     xc contribution           =     -52.91363840 Ry
     ewald contribution        =     -85.02536211 Ry

     total magnetization       =     5.23 Bohr mag/cell
     absolute magnetization    =     5.46 Bohr mag/cell

     convergence has been achieved in   8 iterations

     Forces acting on atoms (cartesian axes, Ry/au):

     atom    1 type  1   force =     0.00000000   -0.00000205   -0.00000000
     atom    2 type  1   force =    -0.00000000    0.00000205    0.00000000

     Total force =     0.000003     Total SCF correction =     0.000000
     SCF correction compared to forces is large: reduce conv_thr to get better values


     Computing stress (Cartesian axis) and pressure

          total   stress  (Ry/bohr**3)                   (kbar)     P=       -2.34
  -0.00002607   0.00000000   0.00000000           -3.84        0.00        0.00
   0.00000000  -0.00002620  -0.00000000            0.00       -3.85       -0.00
   0.00000000  -0.00000000   0.00000465            0.00       -0.00        0.68

     Energy error            =      1.1E-04 Ry
     Gradient error          =      2.1E-06 Ry/Bohr
     Cell gradient error     =      3.9E+00 kbar

     number of scf cycles    =   6
     number of bfgs steps    =   5

     enthalpy           old  =    -111.5810263410 Ry
     enthalpy           new  =    -111.5811382490 Ry

     CASE: enthalpy          _new < enthalpy          _old

     new trust radius        =       0.0031220663 bohr
     new conv_thr            =       0.0000000010 Ry

     new unit-cell volume =    163.89684 a.u.^3 (    24.28701 Ang^3 )
     density =      7.63641 g/cm^3

CELL_PARAMETERS (angstrom)
   2.526470283   0.000000000   0.000000000
  -1.263235141   2.187954549   0.000000000
   0.000000000  -0.000000000   4.393609927

ATOMIC_POSITIONS (angstrom)
Fe              -0.0000000000       -0.0000077355       -0.0000000000
Fe               0.0000000000        1.4586480999        2.1968049637


     Message from routine punch:
     Nothing written, as per user request (disk_io='none')
     NEW-OLD atomic charge density approx. for the potential
     New effective cutoffs (rho, wfc):  342.35   34.26

     Check: negative core charge=   -0.000003
     Generating pointlists ...

     total cpu time spent up to now is      165.0 secs

     Self-consistent Calculation

     iteration #  1     ecut=    30.00 Ry     beta= 0.50
     Davidson diagonalization with overlap
     ethr =  1.00E-06,  avg # of iterations =  2.5

     Threshold (ethr) on eigenvalues was too large:
     Diagonalizing with lowered threshold

     Davidson diagonalization with overlap
     ethr =  9.91E-09,  avg # of iterations =  3.4

     total cpu time spent up to now is      170.9 secs

     total energy              =    -111.58114334 Ry
     estimated scf accuracy    <       0.00000134 Ry

     total magnetization       =     5.22 Bohr mag/cell
     absolute magnetization    =     5.45 Bohr mag/cell

     iteration #  2     ecut=    30.00 Ry     beta= 0.50
     Davidson diagonalization with overlap
     ethr =  8.36E-09,  avg # of iterations =  1.3

     total cpu time spent up to now is      173.0 secs

     total energy              =    -111.58114365 Ry
     estimated scf accuracy    <       0.00000047 Ry

     total magnetization       =     5.22 Bohr mag/cell
     absolute magnetization    =     5.45 Bohr mag/cell

     iteration #  3     ecut=    30.00 Ry     beta= 0.50
     Davidson diagonalization with overlap
     ethr =  2.91E-09,  avg # of iterations =  1.9

     total cpu time spent up to now is      175.2 secs

     total energy              =    -111.58114351 Ry
     estimated scf accuracy    <       0.00000226 Ry

     total magnetization       =     5.22 Bohr mag/cell
     absolute magnetization    =     5.45 Bohr mag/cell

     iteration #  4     ecut=    30.00 Ry     beta= 0.50
     Davidson diagonalization with overlap
     ethr =  2.91E-09,  avg # of iterations =  1.5

     total cpu time spent up to now is      177.3 secs

     total energy              =    -111.58114377 Ry
     estimated scf accuracy    <       0.00000134 Ry

     total magnetization       =     5.22 Bohr mag/cell
     absolute magnetization    =     5.45 Bohr mag/cell

     iteration #  5     ecut=    30.00 Ry     beta= 0.50
     Davidson diagonalization with overlap
     ethr =  2.91E-09,  avg # of iterations =  1.0

     total cpu time spent up to now is      179.4 secs

     total energy              =    -111.58114386 Ry
     estimated scf accuracy    <          8.9E-09 Ry

     total magnetization       =     5.22 Bohr mag/cell
     absolute magnetization    =     5.45 Bohr mag/cell

     iteration #  6     ecut=    30.00 Ry     beta= 0.50
     Davidson diagonalization with overlap
     ethr =  5.54E-11,  avg # of iterations =  3.9

     total cpu time spent up to now is      182.5 secs

     total energy              =    -111.58114387 Ry
     estimated scf accuracy    <          2.3E-09 Ry

     total magnetization       =     5.22 Bohr mag/cell
     absolute magnetization    =     5.45 Bohr mag/cell

     iteration #  7     ecut=    30.00 Ry     beta= 0.50
     Davidson diagonalization with overlap
     ethr =  1.41E-11,  avg # of iterations =  3.8

     Magnetic moment per site  (integrated on atomic sphere of radius R)
     atom   1 (R=0.385)  charge=  6.5349  magn=  2.6532
     atom   2 (R=0.385)  charge=  6.5356  magn=  2.6532

     total cpu time spent up to now is      185.3 secs

     End of self-consistent calculation

     Number of k-points >= 100: set verbosity='high' to print the bands.

     the Fermi energy is    12.7691 ev

!    total energy              =    -111.58114387 Ry
     estimated scf accuracy    <          3.5E-10 Ry
     smearing contrib. (-TS)   =      -0.00010961 Ry
     internal energy E=F+TS    =    -111.58103426 Ry

     The total energy is F=E-TS. E is the sum of the following terms:
     one-electron contribution =      12.54270735 Ry
     hartree contribution      =      13.85405604 Ry
     xc contribution           =     -52.91525860 Ry
     ewald contribution        =     -85.06253905 Ry

     total magnetization       =     5.22 Bohr mag/cell
     absolute magnetization    =     5.45 Bohr mag/cell

     convergence has been achieved in   7 iterations

     Forces acting on atoms (cartesian axes, Ry/au):

     atom    1 type  1   force =     0.00000000   -0.00000258   -0.00000000
     atom    2 type  1   force =    -0.00000000    0.00000258    0.00000000

     Total force =     0.000004     Total SCF correction =     0.000000


     Computing stress (Cartesian axis) and pressure

          total   stress  (Ry/bohr**3)                   (kbar)     P=       -0.24
  -0.00000071   0.00000000  -0.00000000           -0.10        0.00       -0.00
   0.00000000  -0.00000086   0.00000000            0.00       -0.13        0.00
  -0.00000000   0.00000000  -0.00000324           -0.00        0.00       -0.48

     Energy error            =      5.6E-06 Ry
     Gradient error          =      2.6E-06 Ry/Bohr
     Cell gradient error     =      4.8E-01 kbar

     bfgs converged in   7 scf cycles and   6 bfgs steps
     (criteria: energy <  1.0E-04 Ry, force <  1.0E-03 Ry/Bohr, cell <  5.0E-01 kbar)

     End of BFGS Geometry Optimization

     Final enthalpy           =    -111.5811438745 Ry

     File /home/bond/Work/Lab4/1A/Fe_hcp_nk_14_relax/pwscf.bfgs deleted, as requested
Begin final coordinates
     new unit-cell volume =    163.89684 a.u.^3 (    24.28701 Ang^3 )
     density =      7.63641 g/cm^3

CELL_PARAMETERS (angstrom)
   2.526470283   0.000000000   0.000000000
  -1.263235141   2.187954549   0.000000000
   0.000000000  -0.000000000   4.393609927

ATOMIC_POSITIONS (angstrom)
Fe              -0.0000000000       -0.0000077355       -0.0000000000
Fe               0.0000000000        1.4586480999        2.1968049637
End final coordinates


     Message from routine punch:
     Nothing written, as per user request (disk_io='none')

     Final scf calculation at the relaxed structure.
     The G-vectors are recalculated for the final unit cell
     Results may differ from those at the preceding step.

     Parallelization info
     --------------------
     sticks:   dense  smooth     PW     G-vecs:    dense   smooth      PW
     Min         237      93     30                 7189     1835     356
     Max         238      94     31                 7190     1836     357
     Sum         475     187     61                14379     3671     713

     Using Slab Decomposition



     bravais-lattice index     =            0
     lattice parameter (alat)  =       5.1023  a.u.
     unit-cell volume          =     163.8968 (a.u.)^3
     number of atoms/cell      =            2
     number of atomic types    =            1
     number of electrons       =        16.00
     number of Kohn-Sham states=           12
     kinetic-energy cutoff     =      30.0000  Ry
     charge density cutoff     =     300.0000  Ry
     scf convergence threshold =      1.0E-09
     mixing beta               =       0.5000
     number of iterations used =            8  plain     mixing
     press convergence thresh. =      5.0E-01
     Exchange-correlation=  SLA  PW   PBE  PBE
                           (   1   4   3   4   0   0   0)

     celldm(1)=   5.102261  celldm(2)=   0.000000  celldm(3)=   0.000000
     celldm(4)=   0.000000  celldm(5)=   0.000000  celldm(6)=   0.000000

     crystal axes: (cart. coord. in units of alat)
               a(1) = (   0.935730   0.000000   0.000000 )  
               a(2) = (  -0.467865   0.810354   0.000000 )  
               a(3) = (   0.000000  -0.000000   1.627263 )  

     reciprocal axes: (cart. coord. in units 2 pi/alat)
               b(1) = (  1.068685  0.617015  0.000000 )  
               b(2) = ( -0.000000  1.234029  0.000000 )  
               b(3) = (  0.000000 -0.000000  0.614529 )  


     PseudoPot. # 1 for Fe read from file:
     /home/bond/Software/QE/qe-7.4.1/pseudo/Fe.pbe-nd-rrkjus.UPF
     MD5 check sum: 398036227a04b607635f6f5e8dfd8242
     Pseudo is Ultrasoft + core correction, Zval =  8.0
     Generated by new atomic code, or converted to UPF format
     Using radial grid of  957 points,  6 beta functions with: 
                l(1) =   0
                l(2) =   0
                l(3) =   1
                l(4) =   1
                l(5) =   2
                l(6) =   2
     Q(r) pseudized with 0 coefficients 


     atomic species   valence    mass     pseudopotential
     Fe                8.00    55.84500     Fe( 1.00)

     Starting magnetic structure 
     atomic species   magnetization
     Fe              0.406

      4 Sym. Ops. (no inversion) found



   Cartesian axes

     site n.     atom                  positions (alat units)
         1        Fe     tau(   1) = (  -0.0000000  -0.0000029  -0.0000000  )
         2        Fe     tau(   2) = (   0.0000000   0.5402400   0.8136315  )

     number of k points=   228  Methfessel-Paxton smearing, width (Ry)=  0.0200

     Number of k-points >= 100: set verbosity='high' to print them.

     Dense  grid:    14379 G-vectors     FFT dimensions: (  27,  27,  45)

     Smooth grid:     3671 G-vectors     FFT dimensions: (  18,  18,  30)

     Estimated max dynamical RAM per process >      51.11 MB

     Estimated total dynamical RAM >     102.22 MB

     Check: negative core charge=   -0.000006
     Generating pointlists ...

     Initial potential from superposition of free atoms

     starting charge      15.9987, renormalised to      16.0000
     Starting wfcs are   12 randomized atomic wfcs

     total cpu time spent up to now is      187.2 secs

     Self-consistent Calculation

     iteration #  1     ecut=    30.00 Ry     beta= 0.50
     Davidson diagonalization with overlap
     c_bands:  1 eigenvalues not converged
     c_bands:  1 eigenvalues not converged
     c_bands:  1 eigenvalues not converged
     c_bands:  1 eigenvalues not converged
     c_bands:  1 eigenvalues not converged
     c_bands:  1 eigenvalues not converged
     c_bands:  1 eigenvalues not converged
     c_bands:  1 eigenvalues not converged
     c_bands:  1 eigenvalues not converged
     c_bands:  1 eigenvalues not converged
     c_bands:  1 eigenvalues not converged
     c_bands:  1 eigenvalues not converged
     c_bands:  1 eigenvalues not converged
     c_bands:  1 eigenvalues not converged
     c_bands:  1 eigenvalues not converged
     c_bands:  1 eigenvalues not converged
     c_bands:  1 eigenvalues not converged
     c_bands:  1 eigenvalues not converged
     c_bands:  1 eigenvalues not converged
     c_bands:  1 eigenvalues not converged
     c_bands:  1 eigenvalues not converged
     c_bands:  1 eigenvalues not converged
     c_bands:  1 eigenvalues not converged
     c_bands:  1 eigenvalues not converged
     c_bands:  1 eigenvalues not converged
     c_bands:  1 eigenvalues not converged
     c_bands:  1 eigenvalues not converged
     c_bands:  1 eigenvalues not converged
     c_bands:  1 eigenvalues not converged
     c_bands:  1 eigenvalues not converged
     c_bands:  1 eigenvalues not converged
     c_bands:  1 eigenvalues not converged
     c_bands:  1 eigenvalues not converged
     c_bands:  1 eigenvalues not converged
     c_bands:  1 eigenvalues not converged
     c_bands:  1 eigenvalues not converged
     c_bands:  1 eigenvalues not converged
     c_bands:  1 eigenvalues not converged
     c_bands:  1 eigenvalues not converged
     c_bands:  1 eigenvalues not converged
     c_bands:  1 eigenvalues not converged
     c_bands:  1 eigenvalues not converged
     c_bands:  1 eigenvalues not converged
     c_bands:  1 eigenvalues not converged
     c_bands:  1 eigenvalues not converged
     c_bands:  1 eigenvalues not converged
     c_bands:  1 eigenvalues not converged
     c_bands:  1 eigenvalues not converged
     c_bands:  1 eigenvalues not converged
     c_bands:  1 eigenvalues not converged
     c_bands:  1 eigenvalues not converged
     ethr =  1.00E-06,  avg # of iterations = 15.8

     total cpu time spent up to now is      196.6 secs

     total energy              =    -111.30625005 Ry
     estimated scf accuracy    <       0.71593582 Ry

     total magnetization       =     4.86 Bohr mag/cell
     absolute magnetization    =     4.86 Bohr mag/cell

     iteration #  2     ecut=    30.00 Ry     beta= 0.50
     Davidson diagonalization with overlap
     ethr =  4.47E-03,  avg # of iterations =  2.4

     total cpu time spent up to now is      199.0 secs

     total energy              =    -111.54824627 Ry
     estimated scf accuracy    <       0.16177724 Ry

     total magnetization       =     5.18 Bohr mag/cell
     absolute magnetization    =     5.20 Bohr mag/cell

     iteration #  3     ecut=    30.00 Ry     beta= 0.50
     Davidson diagonalization with overlap
     ethr =  1.01E-03,  avg # of iterations =  1.4

     total cpu time spent up to now is      200.8 secs

     total energy              =    -111.57244491 Ry
     estimated scf accuracy    <       0.01013789 Ry

     total magnetization       =     5.21 Bohr mag/cell
     absolute magnetization    =     5.26 Bohr mag/cell

     iteration #  4     ecut=    30.00 Ry     beta= 0.50
     Davidson diagonalization with overlap
     ethr =  6.34E-05,  avg # of iterations =  3.1

     total cpu time spent up to now is      203.3 secs

     total energy              =    -111.57883277 Ry
     estimated scf accuracy    <       0.01004596 Ry

     total magnetization       =     5.21 Bohr mag/cell
     absolute magnetization    =     5.35 Bohr mag/cell

     iteration #  5     ecut=    30.00 Ry     beta= 0.50
     Davidson diagonalization with overlap
     ethr =  6.28E-05,  avg # of iterations =  1.0

     total cpu time spent up to now is      205.1 secs

     total energy              =    -111.57724366 Ry
     estimated scf accuracy    <       0.03590259 Ry

     total magnetization       =     5.20 Bohr mag/cell
     absolute magnetization    =     5.37 Bohr mag/cell

     iteration #  6     ecut=    30.00 Ry     beta= 0.50
     Davidson diagonalization with overlap
     ethr =  6.28E-05,  avg # of iterations =  2.2

     total cpu time spent up to now is      207.2 secs

     total energy              =    -111.58016421 Ry
     estimated scf accuracy    <       0.00429281 Ry

     total magnetization       =     5.21 Bohr mag/cell
     absolute magnetization    =     5.43 Bohr mag/cell

     iteration #  7     ecut=    30.00 Ry     beta= 0.50
     Davidson diagonalization with overlap
     ethr =  2.68E-05,  avg # of iterations =  1.7

     total cpu time spent up to now is      209.1 secs

     total energy              =    -111.58060707 Ry
     estimated scf accuracy    <       0.00021840 Ry

     total magnetization       =     5.21 Bohr mag/cell
     absolute magnetization    =     5.44 Bohr mag/cell

     iteration #  8     ecut=    30.00 Ry     beta= 0.50
     Davidson diagonalization with overlap
     ethr =  1.37E-06,  avg # of iterations =  2.9

     total cpu time spent up to now is      211.5 secs

     total energy              =    -111.58069427 Ry
     estimated scf accuracy    <       0.00000879 Ry

     total magnetization       =     5.22 Bohr mag/cell
     absolute magnetization    =     5.45 Bohr mag/cell

     iteration #  9     ecut=    30.00 Ry     beta= 0.50
     Davidson diagonalization with overlap
     ethr =  5.49E-08,  avg # of iterations =  5.5

     total cpu time spent up to now is      215.0 secs

     total energy              =    -111.58070420 Ry
     estimated scf accuracy    <       0.00000442 Ry

     total magnetization       =     5.22 Bohr mag/cell
     absolute magnetization    =     5.45 Bohr mag/cell

     iteration # 10     ecut=    30.00 Ry     beta= 0.50
     Davidson diagonalization with overlap
     ethr =  2.76E-08,  avg # of iterations =  3.1

     total cpu time spent up to now is      217.4 secs

     total energy              =    -111.58070699 Ry
     estimated scf accuracy    <       0.00000150 Ry

     total magnetization       =     5.22 Bohr mag/cell
     absolute magnetization    =     5.45 Bohr mag/cell

     iteration # 11     ecut=    30.00 Ry     beta= 0.50
     Davidson diagonalization with overlap
     ethr =  9.40E-09,  avg # of iterations =  2.8

     total cpu time spent up to now is      219.7 secs

     total energy              =    -111.58070529 Ry
     estimated scf accuracy    <       0.00000388 Ry

     total magnetization       =     5.22 Bohr mag/cell
     absolute magnetization    =     5.45 Bohr mag/cell

     iteration # 12     ecut=    30.00 Ry     beta= 0.50
     Davidson diagonalization with overlap
     ethr =  9.40E-09,  avg # of iterations =  3.3

     total cpu time spent up to now is      222.3 secs

     total energy              =    -111.58070637 Ry
     estimated scf accuracy    <       0.00000033 Ry

     total magnetization       =     5.22 Bohr mag/cell
     absolute magnetization    =     5.45 Bohr mag/cell

     iteration # 13     ecut=    30.00 Ry     beta= 0.50
     Davidson diagonalization with overlap
     ethr =  2.09E-09,  avg # of iterations =  3.1

     total cpu time spent up to now is      224.6 secs

     total energy              =    -111.58070649 Ry
     estimated scf accuracy    <       0.00000001 Ry

     total magnetization       =     5.22 Bohr mag/cell
     absolute magnetization    =     5.45 Bohr mag/cell

     iteration # 14     ecut=    30.00 Ry     beta= 0.50
     Davidson diagonalization with overlap
     ethr =  8.16E-11,  avg # of iterations =  6.7

     total cpu time spent up to now is      228.6 secs

     total energy              =    -111.58070652 Ry
     estimated scf accuracy    <          3.6E-09 Ry

     total magnetization       =     5.22 Bohr mag/cell
     absolute magnetization    =     5.45 Bohr mag/cell

     iteration # 15     ecut=    30.00 Ry     beta= 0.50
     Davidson diagonalization with overlap
     ethr =  2.23E-11,  avg # of iterations =  3.8

     Magnetic moment per site  (integrated on atomic sphere of radius R)
     atom   1 (R=0.385)  charge=  6.5349  magn=  2.6533
     atom   2 (R=0.385)  charge=  6.5355  magn=  2.6534

     total cpu time spent up to now is      231.2 secs

     End of self-consistent calculation

     Number of k-points >= 100: set verbosity='high' to print the bands.

     the Fermi energy is    12.7705 ev

!    total energy              =    -111.58070652 Ry
     estimated scf accuracy    <          3.2E-10 Ry
     smearing contrib. (-TS)   =      -0.00011142 Ry
     internal energy E=F+TS    =    -111.58059510 Ry

     The total energy is F=E-TS. E is the sum of the following terms:
     one-electron contribution =      12.54351887 Ry
     hartree contribution      =      13.85482045 Ry
     xc contribution           =     -52.91639537 Ry
     ewald contribution        =     -85.06253905 Ry

     total magnetization       =     5.22 Bohr mag/cell
     absolute magnetization    =     5.45 Bohr mag/cell

     convergence has been achieved in  15 iterations

     Forces acting on atoms (cartesian axes, Ry/au):

     atom    1 type  1   force =     0.00000000   -0.00000291   -0.00000000
     atom    2 type  1   force =    -0.00000000    0.00000291    0.00000000

     Total force =     0.000004     Total SCF correction =     0.000000


     Computing stress (Cartesian axis) and pressure

          total   stress  (Ry/bohr**3)                   (kbar)     P=       -1.15
  -0.00001243  -0.00000000   0.00000000           -1.83       -0.00        0.00
  -0.00000000  -0.00001258  -0.00000000           -0.00       -1.85       -0.00
  -0.00000000  -0.00000000   0.00000155           -0.00       -0.00        0.23

     Message from routine punch:
     Nothing written, as per user request (disk_io='none')

     init_run     :      2.11s CPU      2.28s WALL (       2 calls)
     electrons    :    195.54s CPU    221.24s WALL (       8 calls)
     update_pot   :      0.11s CPU      0.11s WALL (       6 calls)
     forces       :      1.34s CPU      1.39s WALL (       8 calls)
     stress       :      6.76s CPU      6.88s WALL (       8 calls)

     Called by init_run:
     wfcinit      :      1.46s CPU      1.61s WALL (       2 calls)
     potinit      :      0.17s CPU      0.17s WALL (       2 calls)
     hinit0       :      0.40s CPU      0.41s WALL (       2 calls)

     Called by electrons:
     c_bands      :    168.35s CPU    190.52s WALL (      77 calls)
     sum_band     :     24.26s CPU     27.74s WALL (      77 calls)
     v_of_rho     :      1.23s CPU      1.26s WALL (      84 calls)
     newd         :      1.83s CPU      1.86s WALL (      84 calls)
     mix_rho      :      0.08s CPU      0.09s WALL (      77 calls)

     Called by c_bands:
     init_us_2    :      4.15s CPU      4.72s WALL (   78432 calls)
     cegterg      :    156.79s CPU    177.50s WALL (   35112 calls)

     Called by *egterg:
     cdiaghg      :     15.97s CPU     18.04s WALL (  145746 calls)
     h_psi        :    125.29s CPU    141.91s WALL (  149850 calls)
     s_psi        :      2.69s CPU      3.08s WALL (  149850 calls)
     g_psi        :      0.82s CPU      0.93s WALL (  113826 calls)

     Called by h_psi:
     h_psi:calbec :      4.53s CPU      5.15s WALL (  149850 calls)
     vloc_psi     :    116.90s CPU    132.40s WALL (  149850 calls)
     add_vuspsi   :      2.85s CPU      3.27s WALL (  149850 calls)

     General routines
     calbec       :      7.42s CPU      8.30s WALL (  246978 calls)
     fft          :      0.65s CPU      0.67s WALL (    2412 calls)
     ffts         :      0.13s CPU      0.13s WALL (     322 calls)
     fftw         :    117.01s CPU    132.96s WALL ( 2972594 calls)
     interpolate  :      0.16s CPU      0.16s WALL (     168 calls)

     Parallel routines

     PWSCF        :   3m26.10s CPU   3m52.15s WALL


   This run was terminated on:  18:36:40  20Oct2025            

=------------------------------------------------------------------------------=
   JOB DONE.
=------------------------------------------------------------------------------=
