
     Program PWSCF v.7.4.1 starts on  7Oct2025 at 23:57:31 

     This program is part of the open-source Quantum ESPRESSO suite
     for quantum simulation of materials; please cite
         "P. Giannozzi et al., J. Phys.:Condens. Matter 21 395502 (2009);
         "P. Giannozzi et al., J. Phys.:Condens. Matter 29 465901 (2017);
         "P. Giannozzi et al., J. Chem. Phys. 152 154105 (2020);
          URL http://www.quantum-espresso.org", 
     in publications or presentations arising from this work. More details at
     http://www.quantum-espresso.org/quote

     Parallel version (MPI), running on     1 processors

     MPI processes distributed on     1 nodes
     186 MiB available memory on the printing compute node when the environment starts

     Waiting for input...
     Reading input from standard input
Warning: card &CELL ignored
Warning: card / ignored

     Current dimensions of program PWSCF are:
     Max number of different atomic species (ntypx) = 10
     Max number of k-points (npk) =  40000
     Max angular momentum in pseudopotentials (lmaxx) =  4
     Message from routine setup:
     using ibrav=0 with symmetry is DISCOURAGED, use correct ibrav instead

     Subspace diagonalization in iterative solution of the eigenvalue problem:
     a serial algorithm will be used


     G-vector sticks info
     --------------------
     sticks:   dense  smooth     PW     G-vecs:    dense   smooth      PW
     Sum         703     703    211                12387    12387    2085

     Using Slab Decomposition



     bravais-lattice index     =            0
     lattice parameter (alat)  =       7.5604  a.u.
     unit-cell volume          =     305.5804 (a.u.)^3
     number of atoms/cell      =            2
     number of atomic types    =            1
     number of electrons       =        28.00
     number of Kohn-Sham states=           14
     kinetic-energy cutoff     =      45.0000  Ry
     charge density cutoff     =     180.0000  Ry
     scf convergence threshold =      1.0E-07
     mixing beta               =       0.5000
     number of iterations used =            8  plain     mixing
     Exchange-correlation=  SLA  PZ   NOGX NOGC
                           (   1   1   0   0   0   0   0)

     celldm(1)=   7.560435  celldm(2)=   0.000000  celldm(3)=   0.000000
     celldm(4)=   0.000000  celldm(5)=   0.000000  celldm(6)=   0.000000

     crystal axes: (cart. coord. in units of alat)
               a(1) = (   0.000000   0.707107   0.707107 )  
               a(2) = (   0.707107   0.000000   0.707107 )  
               a(3) = (   0.707107   0.707107   0.000000 )  

     reciprocal axes: (cart. coord. in units 2 pi/alat)
               b(1) = ( -0.707107  0.707107  0.707107 )  
               b(2) = (  0.707107 -0.707107  0.707107 )  
               b(3) = (  0.707107  0.707107 -0.707107 )  


     PseudoPot. # 1 for Ge read from file:
     /home/bond/Software/QE/qe-7.4.1/pseudo/ge_lda_v1.4.uspp.F.UPF
     MD5 check sum: bf9d52b59cc8a669818bb2b52e0c2ba0
     Pseudo is Ultrasoft + core correction, Zval = 14.0
     Generated by new atomic code, or converted to UPF format
     Using radial grid of  873 points,  6 beta functions with: 
                l(1) =   0
                l(2) =   0
                l(3) =   1
                l(4) =   1
                l(5) =   2
                l(6) =   2
     Q(r) pseudized with  8 coefficients,  rinner =    1.400   1.400   1.400
                                                       1.400   1.400

     atomic species   valence    mass     pseudopotential
     Ge               14.00    72.63000     Ge( 1.00)

     48 Sym. Ops., with inversion, found (24 have fractional translation)



   Cartesian axes

     site n.     atom                  positions (alat units)
         1        Ge     tau(   1) = (   0.0000000   0.0000000   0.0000000  )
         2        Ge     tau(   2) = (   0.3535534   0.3535534   0.3535534  )

     number of k points=     8
                       cart. coord. in units 2pi/alat
        k(    1) = (   0.0000000   0.0000000   0.0000000), wk =   0.0312500
        k(    2) = (   0.1767767   0.1767767  -0.1767767), wk =   0.2500000
        k(    3) = (  -0.3535534  -0.3535534   0.3535534), wk =   0.1250000
        k(    4) = (   0.3535534   0.0000000   0.0000000), wk =   0.1875000
        k(    5) = (  -0.1767767  -0.5303301   0.5303301), wk =   0.7500000
        k(    6) = (   0.0000000  -0.3535534   0.3535534), wk =   0.3750000
        k(    7) = (  -0.7071068   0.0000000   0.0000000), wk =   0.0937500
        k(    8) = (  -0.7071068   0.3535534   0.0000000), wk =   0.1875000

     Dense  grid:    12387 G-vectors     FFT dimensions: (  36,  36,  36)

     Estimated max dynamical RAM per process >      51.27 MB

     Check: negative core charge=   -0.000002

     Initial potential from superposition of free atoms

     starting charge      27.9986, renormalised to      28.0000
     Starting wfcs are   18 randomized atomic wfcs

     total cpu time spent up to now is        1.4 secs

     Self-consistent Calculation

     iteration #  1     ecut=    45.00 Ry     beta= 0.50
     Davidson diagonalization with overlap
     ethr =  1.00E-02,  avg # of iterations =  1.6

     Threshold (ethr) on eigenvalues was too large:
     Diagonalizing with lowered threshold

     Davidson diagonalization with overlap
     ethr =  1.30E-04,  avg # of iterations =  1.9

     total cpu time spent up to now is        2.3 secs

     total energy              =    -426.15206668 Ry
     estimated scf accuracy    <       0.03934384 Ry

     iteration #  2     ecut=    45.00 Ry     beta= 0.50
     Davidson diagonalization with overlap
     ethr =  1.41E-04,  avg # of iterations =  1.1

     total cpu time spent up to now is        2.7 secs

     total energy              =    -426.15052512 Ry
     estimated scf accuracy    <       0.00696694 Ry

     iteration #  3     ecut=    45.00 Ry     beta= 0.50
     Davidson diagonalization with overlap
     ethr =  2.49E-05,  avg # of iterations =  2.0

     total cpu time spent up to now is        3.2 secs

     total energy              =    -426.15102413 Ry
     estimated scf accuracy    <       0.00007455 Ry

     iteration #  4     ecut=    45.00 Ry     beta= 0.50
     Davidson diagonalization with overlap
     ethr =  2.66E-07,  avg # of iterations =  3.8

     total cpu time spent up to now is        3.8 secs

     total energy              =    -426.15104381 Ry
     estimated scf accuracy    <       0.00000316 Ry

     iteration #  5     ecut=    45.00 Ry     beta= 0.50
     Davidson diagonalization with overlap
     ethr =  1.13E-08,  avg # of iterations =  2.9

     total cpu time spent up to now is        4.3 secs

     total energy              =    -426.15104468 Ry
     estimated scf accuracy    <       0.00000016 Ry

     iteration #  6     ecut=    45.00 Ry     beta= 0.50
     Davidson diagonalization with overlap
     ethr =  5.87E-10,  avg # of iterations =  3.6

     total cpu time spent up to now is        4.8 secs

     End of self-consistent calculation

          k = 0.0000 0.0000 0.0000 (  1471 PWs)   bands (ev):

   -16.6782 -16.6782 -16.6782 -16.6421 -16.6421 -16.4310 -16.4310 -16.4310
   -16.4177 -16.4177  -4.6288   8.0072   8.1964   8.1964

          k = 0.1768 0.1768-0.1768 (  1546 PWs)   bands (ev):

   -16.6966 -16.6966 -16.6697 -16.6137 -16.6137 -16.4570 -16.4570 -16.4413
   -16.3973 -16.3973  -3.8868   3.4147   7.3104   7.3104

          k =-0.3536-0.3536 0.3536 (  1538 PWs)   bands (ev):

   -16.7029 -16.7029 -16.6608 -16.6003 -16.6003 -16.4657 -16.4657 -16.4518
   -16.3905 -16.3905  -2.5399   0.5410   6.7882   6.7882

          k = 0.3536 0.0000 0.0000 (  1587 PWs)   bands (ev):

   -16.6967 -16.6967 -16.6848 -16.6081 -16.5730 -16.5185 -16.4494 -16.4052
   -16.4027 -16.4027  -3.6189   3.4062   6.1507   6.1507

          k =-0.1768-0.5303 0.5303 (  1564 PWs)   bands (ev):

   -16.7241 -16.7090 -16.6409 -16.5733 -16.5538 -16.5351 -16.4869 -16.4554
   -16.3826 -16.3681  -2.1304   0.7526   4.4377   5.7862

          k = 0.0000-0.3536 0.3536 (  1554 PWs)   bands (ev):

   -16.7192 -16.7117 -16.6345 -16.5979 -16.5704 -16.4984 -16.4791 -16.4659
   -16.3789 -16.3756  -2.7445   1.6070   4.2978   6.6867

          k =-0.7071 0.0000 0.0000 (  1588 PWs)   bands (ev):

   -16.7124 -16.7124 -16.6268 -16.6268 -16.5275 -16.5275 -16.4699 -16.4699
   -16.3766 -16.3766  -0.7473  -0.7473   5.1123   5.1123

          k =-0.7071 0.3536 0.0000 (  1564 PWs)   bands (ev):

   -16.7262 -16.7262 -16.5842 -16.5842 -16.5352 -16.5352 -16.5030 -16.5030
   -16.3643 -16.3643  -0.6494  -0.6494   4.2629   4.2629

     highest occupied level (ev):     8.1964

!    total energy              =    -426.15104472 Ry
     estimated scf accuracy    <       0.00000004 Ry

     The total energy is the sum of the following terms:
     one-electron contribution =    -279.23751982 Ry
     hartree contribution      =     165.13255431 Ry
     xc contribution           =    -114.55160414 Ry
     ewald contribution        =    -197.49447508 Ry

     convergence has been achieved in   6 iterations

     Forces acting on atoms (cartesian axes, Ry/au):

     atom    1 type  1   force =     0.00000000    0.00000000    0.00000000
     atom    2 type  1   force =     0.00000000    0.00000000    0.00000000

     Total force =     0.000000     Total SCF correction =     0.000000


     Computing stress (Cartesian axis) and pressure

          total   stress  (Ry/bohr**3)                   (kbar)     P=       -4.27
  -0.00002905   0.00000000  -0.00000000           -4.27        0.00       -0.00
   0.00000000  -0.00002905  -0.00000000            0.00       -4.27       -0.00
  -0.00000000  -0.00000000  -0.00002905           -0.00       -0.00       -4.27

     Message from routine punch:
     Nothing written, as per user request (disk_io='none')

     init_run     :      1.03s CPU      1.17s WALL (       1 calls)
     electrons    :      3.16s CPU      3.43s WALL (       1 calls)
     forces       :      0.07s CPU      0.09s WALL (       1 calls)
     stress       :      0.63s CPU      0.69s WALL (       1 calls)

     Called by init_run:
     wfcinit      :      0.36s CPU      0.38s WALL (       1 calls)
     potinit      :      0.03s CPU      0.03s WALL (       1 calls)
     hinit0       :      0.57s CPU      0.65s WALL (       1 calls)

     Called by electrons:
     c_bands      :      2.14s CPU      2.18s WALL (       7 calls)
     sum_band     :      0.75s CPU      0.86s WALL (       7 calls)
     v_of_rho     :      0.02s CPU      0.03s WALL (       7 calls)
     newd         :      0.29s CPU      0.43s WALL (       7 calls)
     mix_rho      :      0.01s CPU      0.01s WALL (       7 calls)

     Called by c_bands:
     init_us_2    :      0.08s CPU      0.09s WALL (     136 calls)
     cegterg      :      1.96s CPU      1.99s WALL (      56 calls)

     Called by *egterg:
     cdiaghg      :      0.05s CPU      0.05s WALL (     183 calls)
     h_psi        :      2.02s CPU      2.06s WALL (     199 calls)
     s_psi        :      0.04s CPU      0.05s WALL (     199 calls)
     g_psi        :      0.01s CPU      0.01s WALL (     135 calls)

     Called by h_psi:
     h_psi:calbec :      0.06s CPU      0.06s WALL (     199 calls)
     vloc_psi     :      1.90s CPU      1.94s WALL (     199 calls)
     add_vuspsi   :      0.05s CPU      0.05s WALL (     199 calls)

     General routines
     calbec       :      0.12s CPU      0.12s WALL (     391 calls)
     fft          :      0.26s CPU      0.27s WALL (      37 calls)
     ffts         :      0.00s CPU      0.00s WALL (       7 calls)
     fftw         :      1.90s CPU      1.93s WALL (    5024 calls)

     Parallel routines

     PWSCF        :      5.08s CPU      5.60s WALL


   This run was terminated on:  23:57:37   7Oct2025            

=------------------------------------------------------------------------------=
   JOB DONE.
=------------------------------------------------------------------------------=
