LAMMPS (22 Jul 2025 - Update 1)
Reading data file ...
  orthogonal box = (0 0 0) to (20.612615 20.612615 20.612615)
  1 by 1 by 1 MPI processor grid
  reading atoms ...
  499 atoms
  read_data CPU = 0.002 seconds
WARNING: No fixes with time integration, atoms won't move
For more information see https://docs.lammps.org/err0028 (../verlet.cpp:60)
Generated 0 of 0 mixed pair_coeff terms from geometric mixing rule
Neighbor list info ...
  update: every = 1 steps, delay = 0 steps, check = yes
  max neighbors/atom: 2000, page size: 100000
  master list distance cutoff = 6.5
  ghost atom cutoff = 6.5
  binsize = 3.25, bins = 7 7 7
  1 neighbor lists, perpetual/occasional/extra = 1 0 0
  (1) pair lj/cut, perpetual
      attributes: half, newton on
      pair build: half/bin/atomonly/newton
      stencil: half/bin/3d
      bin: standard
Setting up Verlet run ...
  Unit style    : metal
  Current step  : 0
  Time step     : 0.001
Per MPI rank memory allocation (min/avg/max) = 3.145 | 3.145 | 3.145 Mbytes
   Step         PotEng           Lx             Ly             Lz           Press           Pxx            Pyy            Pzz      
         0  -1312.0331      20.612615      20.612615      20.612615     -0.0075746253  -0.0099267478  -0.0028703802  -0.0099267478 
Loop time of 1.922e-06 on 1 procs for 0 steps with 499 atoms

208.1% CPU use with 1 MPI tasks x no OpenMP threads

MPI task timing breakdown:
Section |  min time  |  avg time  |  max time  |%varavg| %total
---------------------------------------------------------------
Pair    | 0          | 0          | 0          |   0.0 |  0.00
Neigh   | 0          | 0          | 0          |   0.0 |  0.00
Comm    | 0          | 0          | 0          |   0.0 |  0.00
Output  | 0          | 0          | 0          |   0.0 |  0.00
Modify  | 0          | 0          | 0          |   0.0 |  0.00
Other   |            | 1.922e-06  |            |       |100.00

Nlocal:            499 ave         499 max         499 min
Histogram: 1 0 0 0 0 0 0 0 0 0
Nghost:           1949 ave        1949 max        1949 min
Histogram: 1 0 0 0 0 0 0 0 0 0
Neighs:          13446 ave       13446 max       13446 min
Histogram: 1 0 0 0 0 0 0 0 0 0

Total # of neighbors = 13446
Ave neighs/atom = 26.945892
Neighbor list builds = 0
Dangerous builds = 0
Total energy (eV) = -1312.0331168833
Number of atoms = 499
Lattice constant (Angstoms) = 20.6126150688987
Total wall time: 0:00:00
