LAMMPS (22 Jul 2025 - Update 1)
# ---------- 1. Initialize simulation ---------------------
units metal
atom_style atomic
dimension  3
boundary   p p f
read_data /home/bond/Work/Lab1/Surface/EAM/relax/6_3_110/lammps.data
Reading data file ...
  orthogonal box = (0 0 0) to (12.244965 8.6584976 13.215415)
  1 by 1 by 1 MPI processor grid
  reading atoms ...
  54 atoms
  read_data CPU = 0.001 seconds

# ---------- 2. Specify interatomic potential ---------------------
pair_style eam/alloy
pair_coeff * * /home/bond/Software/LAMMPS/lammps-22Jul2025/potentials/Al_zhou.eam.alloy  Al
Reading eam/alloy potential file /home/bond/Software/LAMMPS/lammps-22Jul2025/potentials/Al_zhou.eam.alloy with DATE: 2007-10-12

# pair_style lj/cut 4.5
# pair_coeff 1 1 0.392 2.620 4.5

# ---------- 3. Run single point calculation  ---------------------
thermo_style custom step pe lx ly lz press pxx pyy pzz
run 0
WARNING: No fixes with time integration, atoms won't move
For more information see https://docs.lammps.org/err0028 (../verlet.cpp:60)
Neighbor list info ...
  update: every = 1 steps, delay = 0 steps, check = yes
  max neighbors/atom: 2000, page size: 100000
  master list distance cutoff = 12.1025
  ghost atom cutoff = 12.1025
  binsize = 6.05125, bins = 3 2 3
  1 neighbor lists, perpetual/occasional/extra = 1 0 0
  (1) pair eam/alloy, perpetual
      attributes: half, newton on
      pair build: half/bin/atomonly/newton
      stencil: half/bin/3d
      bin: standard
Per MPI rank memory allocation (min/avg/max) = 3.312 | 3.312 | 3.312 Mbytes
   Step         PotEng           Lx             Ly             Lz           Press           Pxx            Pyy            Pzz      
         0  -180.3205       12.244965      8.6584976      13.215415     -29797.012     -36632.851     -34349.981     -18408.204    
Loop time of 1.995e-06 on 1 procs for 0 steps with 54 atoms

100.3% CPU use with 1 MPI tasks x no OpenMP threads

MPI task timing breakdown:
Section |  min time  |  avg time  |  max time  |%varavg| %total
---------------------------------------------------------------
Pair    | 0          | 0          | 0          |   0.0 |  0.00
Neigh   | 0          | 0          | 0          |   0.0 |  0.00
Comm    | 0          | 0          | 0          |   0.0 |  0.00
Output  | 0          | 0          | 0          |   0.0 |  0.00
Modify  | 0          | 0          | 0          |   0.0 |  0.00
Other   |            | 1.995e-06  |            |       |100.00

Nlocal:             54 ave          54 max          54 min
Histogram: 1 0 0 0 0 0 0 0 0 0
Nghost:            531 ave         531 max         531 min
Histogram: 1 0 0 0 0 0 0 0 0 0
Neighs:           5706 ave        5706 max        5706 min
Histogram: 1 0 0 0 0 0 0 0 0 0

Total # of neighbors = 5706
Ave neighs/atom = 105.66667
Neighbor list builds = 0
Dangerous builds = 0
# -- include optimization of the unit cell parameter
#fix 1 all box/relax x 0.0 y 0.0 couple xy vmax 0.001

# -- enable optimization of atomic positions (and the cell)
min_style cg
minimize 1e-10 1e-10 1000 10000
Per MPI rank memory allocation (min/avg/max) = 4.437 | 4.437 | 4.437 Mbytes
   Step         PotEng           Lx             Ly             Lz           Press           Pxx            Pyy            Pzz      
         0  -180.3205       12.244965      8.6584976      13.215415     -29797.012     -36632.851     -34349.981     -18408.204    
         7  -180.71947      12.244965      8.6584976      13.215415     -14072.404     -21060.32      -21156.87      -0.020650469  
Loop time of 0.00473204 on 1 procs for 7 steps with 54 atoms

99.9% CPU use with 1 MPI tasks x no OpenMP threads

Minimization stats:
  Stopping criterion = energy tolerance
  Energy initial, next-to-last, final = 
       -180.3205037766  -180.719465176693  -180.719465176812
  Force two-norm initial, final = 1.4870822 4.4907919e-06
  Force max component initial, final = 0.32385602 1.1801939e-06
  Final line search alpha, max atom move = 1 1.1801939e-06
  Iterations, force evaluations = 7 14

MPI task timing breakdown:
Section |  min time  |  avg time  |  max time  |%varavg| %total
---------------------------------------------------------------
Pair    | 0.0045854  | 0.0045854  | 0.0045854  |   0.0 | 96.90
Neigh   | 0          | 0          | 0          |   0.0 |  0.00
Comm    | 4.5501e-05 | 4.5501e-05 | 4.5501e-05 |   0.0 |  0.96
Output  | 0          | 0          | 0          |   0.0 |  0.00
Modify  | 0          | 0          | 0          |   0.0 |  0.00
Other   |            | 0.0001012  |            |       |  2.14

Nlocal:             54 ave          54 max          54 min
Histogram: 1 0 0 0 0 0 0 0 0 0
Nghost:            531 ave         531 max         531 min
Histogram: 1 0 0 0 0 0 0 0 0 0
Neighs:           5706 ave        5706 max        5706 min
Histogram: 1 0 0 0 0 0 0 0 0 0

Total # of neighbors = 5706
Ave neighs/atom = 105.66667
Neighbor list builds = 0
Dangerous builds = 0

# ---- 4. Define and print useful variables -------------
variable natoms equal "count(all)"
variable totenergy equal "pe"
variable length equal "lx"

print "Total energy (eV) = ${totenergy}"
Total energy (eV) = -180.719465176812
print "Number of atoms = ${natoms}"
Number of atoms = 54
print "Lattice constant (Angstoms) = ${length}"
Lattice constant (Angstoms) = 12.2449647145904
Total wall time: 0:00:00
