LAMMPS (22 Jul 2025 - Update 1)
Reading data file ...
  orthogonal box = (0 0 0) to (8.6584976 7.4984789 11.426178)
  1 by 1 by 1 MPI processor grid
  reading atoms ...
  45 atoms
  read_data CPU = 0.001 seconds
Reading eam/alloy potential file /home/bond/Software/LAMMPS/lammps-22Jul2025/potentials/Al_zhou.eam.alloy with DATE: 2007-10-12
WARNING: No fixes with time integration, atoms won't move
For more information see https://docs.lammps.org/err0028 (../verlet.cpp:60)
Neighbor list info ...
  update: every = 1 steps, delay = 0 steps, check = yes
  max neighbors/atom: 2000, page size: 100000
  master list distance cutoff = 12.1025
  ghost atom cutoff = 12.1025
  binsize = 6.05125, bins = 2 2 2
  1 neighbor lists, perpetual/occasional/extra = 1 0 0
  (1) pair eam/alloy, perpetual
      attributes: half, newton on
      pair build: half/bin/atomonly/newton
      stencil: half/bin/3d
      bin: standard
Setting up Verlet run ...
  Unit style    : metal
  Current step  : 0
  Time step     : 0.001
Per MPI rank memory allocation (min/avg/max) = 3.204 | 3.204 | 3.204 Mbytes
   Step         PotEng           Lx             Ly             Lz           Press           Pxx            Pyy            Pzz      
         0  -151.58198      8.6584976      7.4984789      11.426178     -2849.4933     -26435.985      15463.552      2423.953     
Loop time of 1.491e-06 on 1 procs for 0 steps with 45 atoms

67.1% CPU use with 1 MPI tasks x no OpenMP threads

MPI task timing breakdown:
Section |  min time  |  avg time  |  max time  |%varavg| %total
---------------------------------------------------------------
Pair    | 0          | 0          | 0          |   0.0 |  0.00
Neigh   | 0          | 0          | 0          |   0.0 |  0.00
Comm    | 0          | 0          | 0          |   0.0 |  0.00
Output  | 0          | 0          | 0          |   0.0 |  0.00
Modify  | 0          | 0          | 0          |   0.0 |  0.00
Other   |            | 1.491e-06  |            |       |100.00

Nlocal:             45 ave          45 max          45 min
Histogram: 1 0 0 0 0 0 0 0 0 0
Nghost:            685 ave         685 max         685 min
Histogram: 1 0 0 0 0 0 0 0 0 0
Neighs:           6063 ave        6063 max        6063 min
Histogram: 1 0 0 0 0 0 0 0 0 0

Total # of neighbors = 6063
Ave neighs/atom = 134.73333
Neighbor list builds = 0
Dangerous builds = 0
Setting up cg style minimization ...
  Unit style    : metal
  Current step  : 0
Per MPI rank memory allocation (min/avg/max) = 4.329 | 4.329 | 4.329 Mbytes
   Step         PotEng           Lx             Ly             Lz           Press           Pxx            Pyy            Pzz      
         0  -151.58198      8.6584976      7.4984789      11.426178     -2849.4933     -26435.985      15463.552      2423.953     
        19  -152.76319      8.6584976      7.4984789      11.426178     -617.26417     -16155.866      14306.52      -2.4464517    
Loop time of 0.015304 on 1 procs for 19 steps with 45 atoms

98.5% CPU use with 1 MPI tasks x no OpenMP threads

Minimization stats:
  Stopping criterion = energy tolerance
  Energy initial, next-to-last, final = 
     -151.581981260475  -152.763194326117  -152.763194335609
  Force two-norm initial, final = 3.5434248 0.0001890417
  Force max component initial, final = 0.65897754 4.0830737e-05
  Final line search alpha, max atom move = 1 4.0830737e-05
  Iterations, force evaluations = 19 38

MPI task timing breakdown:
Section |  min time  |  avg time  |  max time  |%varavg| %total
---------------------------------------------------------------
Pair    | 0.014927   | 0.014927   | 0.014927   |   0.0 | 97.54
Neigh   | 0          | 0          | 0          |   0.0 |  0.00
Comm    | 0.00017829 | 0.00017829 | 0.00017829 |   0.0 |  1.16
Output  | 0          | 0          | 0          |   0.0 |  0.00
Modify  | 0          | 0          | 0          |   0.0 |  0.00
Other   |            | 0.0001988  |            |       |  1.30

Nlocal:             45 ave          45 max          45 min
Histogram: 1 0 0 0 0 0 0 0 0 0
Nghost:            685 ave         685 max         685 min
Histogram: 1 0 0 0 0 0 0 0 0 0
Neighs:           6063 ave        6063 max        6063 min
Histogram: 1 0 0 0 0 0 0 0 0 0

Total # of neighbors = 6063
Ave neighs/atom = 134.73333
Neighbor list builds = 0
Dangerous builds = 0
Total energy (eV) = -152.763194335609
Number of atoms = 45
Lattice constant (Angstoms) = 8.65849758507688
Total wall time: 0:00:00
