
     Program PWSCF v.7.4.1 starts on  8Oct2025 at  0:23:16 

     This program is part of the open-source Quantum ESPRESSO suite
     for quantum simulation of materials; please cite
         "P. Giannozzi et al., J. Phys.:Condens. Matter 21 395502 (2009);
         "P. Giannozzi et al., J. Phys.:Condens. Matter 29 465901 (2017);
         "P. Giannozzi et al., J. Chem. Phys. 152 154105 (2020);
          URL http://www.quantum-espresso.org", 
     in publications or presentations arising from this work. More details at
     http://www.quantum-espresso.org/quote

     Parallel version (MPI), running on     1 processors

     MPI processes distributed on     1 nodes
     131 MiB available memory on the printing compute node when the environment starts

     Waiting for input...
     Reading input from standard input
Warning: card &CELL ignored
Warning: card / ignored

     Current dimensions of program PWSCF are:
     Max number of different atomic species (ntypx) = 10
     Max number of k-points (npk) =  40000
     Max angular momentum in pseudopotentials (lmaxx) =  4
     Message from routine setup:
     using ibrav=0 with symmetry is DISCOURAGED, use correct ibrav instead

     Subspace diagonalization in iterative solution of the eigenvalue problem:
     a serial algorithm will be used


     G-vector sticks info
     --------------------
     sticks:   dense  smooth     PW     G-vecs:    dense   smooth      PW
     Sum         163     163     55                 1291     1291     283

     Using Slab Decomposition



     bravais-lattice index     =            0
     lattice parameter (alat)  =       7.5604  a.u.
     unit-cell volume          =     305.5804 (a.u.)^3
     number of atoms/cell      =            2
     number of atomic types    =            1
     number of electrons       =        28.00
     number of Kohn-Sham states=           14
     kinetic-energy cutoff     =      10.0000  Ry
     charge density cutoff     =      40.0000  Ry
     scf convergence threshold =      1.0E-07
     mixing beta               =       0.5000
     number of iterations used =            8  plain     mixing
     Exchange-correlation=  SLA  PZ   NOGX NOGC
                           (   1   1   0   0   0   0   0)

     celldm(1)=   7.560435  celldm(2)=   0.000000  celldm(3)=   0.000000
     celldm(4)=   0.000000  celldm(5)=   0.000000  celldm(6)=   0.000000

     crystal axes: (cart. coord. in units of alat)
               a(1) = (   0.000000   0.707107   0.707107 )  
               a(2) = (   0.707107   0.000000   0.707107 )  
               a(3) = (   0.707107   0.707107   0.000000 )  

     reciprocal axes: (cart. coord. in units 2 pi/alat)
               b(1) = ( -0.707107  0.707107  0.707107 )  
               b(2) = (  0.707107 -0.707107  0.707107 )  
               b(3) = (  0.707107  0.707107 -0.707107 )  


     PseudoPot. # 1 for Ge read from file:
     /home/bond/Software/QE/qe-7.4.1/pseudo/ge_lda_v1.4.uspp.F.UPF
     MD5 check sum: bf9d52b59cc8a669818bb2b52e0c2ba0
     Pseudo is Ultrasoft + core correction, Zval = 14.0
     Generated by new atomic code, or converted to UPF format
     Using radial grid of  873 points,  6 beta functions with: 
                l(1) =   0
                l(2) =   0
                l(3) =   1
                l(4) =   1
                l(5) =   2
                l(6) =   2
     Q(r) pseudized with  8 coefficients,  rinner =    1.400   1.400   1.400
                                                       1.400   1.400

     atomic species   valence    mass     pseudopotential
     Ge               14.00    72.63000     Ge( 1.00)

      4 Sym. Ops. (no inversion) found



   Cartesian axes

     site n.     atom                  positions (alat units)
         1        Ge     tau(   1) = (   0.0000000   0.0000000   0.0707107  )
         2        Ge     tau(   2) = (   0.3535534   0.3535534   0.3535534  )

     number of k points=    18
                       cart. coord. in units 2pi/alat
        k(    1) = (   0.0000000   0.0000000   0.0000000), wk =   0.0312500
        k(    2) = (   0.1767767   0.1767767  -0.1767767), wk =   0.1250000
        k(    3) = (  -0.3535534  -0.3535534   0.3535534), wk =   0.0625000
        k(    4) = (   0.3535534   0.0000000   0.0000000), wk =   0.1250000
        k(    5) = (  -0.1767767  -0.5303301   0.5303301), wk =   0.2500000
        k(    6) = (   0.0000000  -0.3535534   0.3535534), wk =   0.2500000
        k(    7) = (  -0.7071068   0.0000000   0.0000000), wk =   0.0625000
        k(    8) = (  -0.7071068   0.3535534   0.0000000), wk =   0.1250000
        k(    9) = (   0.1767767  -0.1767767  -0.1767767), wk =   0.1250000
        k(   10) = (  -0.3535534   0.3535534   0.3535534), wk =   0.0625000
        k(   11) = (   0.0000000   0.0000000   0.3535534), wk =   0.0625000
        k(   12) = (  -0.5303301   0.1767767   0.5303301), wk =   0.2500000
        k(   13) = (   0.5303301   0.5303301  -0.1767767), wk =   0.1250000
        k(   14) = (  -0.5303301   0.5303301   0.1767767), wk =   0.1250000
        k(   15) = (   0.3535534   0.3535534   0.0000000), wk =   0.0625000
        k(   16) = (  -0.3535534   0.3535534   0.0000000), wk =   0.0625000
        k(   17) = (   0.0000000   0.0000000  -0.7071068), wk =   0.0312500
        k(   18) = (   0.7071068   0.0000000   0.3535534), wk =   0.0625000

     Dense  grid:     1291 G-vectors     FFT dimensions: (  15,  15,  15)

     Estimated max dynamical RAM per process >       5.99 MB

     Check: negative core charge=   -0.018745

     Initial potential from superposition of free atoms

     starting charge      27.9986, renormalised to      28.0000

     negative rho (up, down):  4.839E-01 0.000E+00
     Starting wfcs are   18 randomized atomic wfcs

     total cpu time spent up to now is        0.3 secs

     Self-consistent Calculation

     iteration #  1     ecut=    10.00 Ry     beta= 0.50
     Davidson diagonalization with overlap
     ethr =  1.00E-02,  avg # of iterations =  2.4

     negative rho (up, down):  7.046E-02 0.000E+00

     total cpu time spent up to now is        0.4 secs

     total energy              =    -352.30238704 Ry
     estimated scf accuracy    <      56.60678358 Ry

     iteration #  2     ecut=    10.00 Ry     beta= 0.50
     Davidson diagonalization with overlap
     ethr =  1.00E-02,  avg # of iterations =  5.7

     negative rho (up, down):  1.220E-01 0.000E+00

     total cpu time spent up to now is        0.5 secs

     total energy              =    -367.01425013 Ry
     estimated scf accuracy    <       1.78904754 Ry

     iteration #  3     ecut=    10.00 Ry     beta= 0.50
     Davidson diagonalization with overlap
     ethr =  6.39E-03,  avg # of iterations =  1.7

     negative rho (up, down):  1.603E-01 0.000E+00

     total cpu time spent up to now is        0.6 secs

     total energy              =    -366.99839622 Ry
     estimated scf accuracy    <       0.27387102 Ry

     iteration #  4     ecut=    10.00 Ry     beta= 0.50
     Davidson diagonalization with overlap
     ethr =  9.78E-04,  avg # of iterations =  2.6

     negative rho (up, down):  1.470E-01 0.000E+00

     total cpu time spent up to now is        0.7 secs

     total energy              =    -367.03159935 Ry
     estimated scf accuracy    <       0.00270852 Ry

     iteration #  5     ecut=    10.00 Ry     beta= 0.50
     Davidson diagonalization with overlap
     ethr =  9.67E-06,  avg # of iterations =  4.6

     negative rho (up, down):  1.460E-01 0.000E+00

     total cpu time spent up to now is        0.8 secs

     total energy              =    -367.03336327 Ry
     estimated scf accuracy    <       0.00029054 Ry

     iteration #  6     ecut=    10.00 Ry     beta= 0.50
     Davidson diagonalization with overlap
     ethr =  1.04E-06,  avg # of iterations =  4.2

     negative rho (up, down):  1.451E-01 0.000E+00

     total cpu time spent up to now is        0.9 secs

     total energy              =    -367.03340474 Ry
     estimated scf accuracy    <       0.00005731 Ry

     iteration #  7     ecut=    10.00 Ry     beta= 0.50
     Davidson diagonalization with overlap
     ethr =  2.05E-07,  avg # of iterations =  4.7

     negative rho (up, down):  1.455E-01 0.000E+00

     total cpu time spent up to now is        1.0 secs

     total energy              =    -367.03341157 Ry
     estimated scf accuracy    <       0.00003063 Ry

     iteration #  8     ecut=    10.00 Ry     beta= 0.50
     Davidson diagonalization with overlap
     ethr =  1.09E-07,  avg # of iterations =  3.9

     negative rho (up, down):  1.454E-01 0.000E+00

     total cpu time spent up to now is        1.0 secs

     total energy              =    -367.03341817 Ry
     estimated scf accuracy    <       0.00000061 Ry

     iteration #  9     ecut=    10.00 Ry     beta= 0.50
     Davidson diagonalization with overlap
     ethr =  2.18E-09,  avg # of iterations =  4.6

     negative rho (up, down):  1.455E-01 0.000E+00

     total cpu time spent up to now is        1.2 secs

     End of self-consistent calculation

          k = 0.0000 0.0000 0.0000 (   169 PWs)   bands (ev):

   -32.3705 -31.5429 -31.2284 -30.8108 -29.5871 -27.7078 -27.2347 -22.1678
   -21.6120 -18.7121 -11.4791  -4.2137   0.6164   2.2823

          k = 0.1768 0.1768-0.1768 (   162 PWs)   bands (ev):

   -30.5329 -30.0562 -25.0935 -24.7854 -24.1138 -20.5081 -19.9050 -19.5949
   -17.6573 -17.5645 -10.8753  -5.9750   0.9627   1.9982

          k =-0.3536-0.3536 0.3536 (   168 PWs)   bands (ev):

   -38.9172 -37.5123 -33.3907 -28.7298 -26.2560 -25.4275 -22.1530 -19.1109
   -18.6595 -16.0909  -9.7479  -7.9374   0.7327   1.7583

          k = 0.3536 0.0000 0.0000 (   165 PWs)   bands (ev):

   -34.8739 -34.4221 -32.2593 -30.2579 -23.0000 -22.4411 -21.7492 -21.6708
   -16.9373 -11.4861 -10.7625  -6.0413   0.7601   1.0346

          k =-0.1768-0.5303 0.5303 (   164 PWs)   bands (ev):

   -36.0505 -32.3921 -30.9177 -30.1894 -23.8277 -21.8337 -21.4323 -19.5984
   -16.6916 -10.8795  -9.4894  -8.0910   0.0635   0.7949

          k = 0.0000-0.3536 0.3536 (   164 PWs)   bands (ev):

   -36.3870 -34.9895 -30.3608 -24.8833 -24.5008 -21.3138 -20.7328 -18.4245
   -15.2320 -15.0389 -10.2590  -6.8900  -0.3589   1.4190

          k =-0.7071 0.0000 0.0000 (   150 PWs)   bands (ev):

   -26.1419 -26.0678 -18.4164 -18.3450 -16.9136 -16.8415 -10.7562 -10.7137
    -8.6934  -8.6838  -1.8253  -1.7852   0.3121   0.4218

          k =-0.7071 0.3536 0.0000 (   156 PWs)   bands (ev):

   -28.9692 -28.4394 -22.2116 -20.3672 -19.4523 -19.1336 -16.4523 -16.2953
   -11.2333  -9.4400  -8.4965  -7.9250  -0.6641   0.3468

          k = 0.1768-0.1768-0.1768 (   162 PWs)   bands (ev):

   -31.3250 -30.2982 -29.6576 -26.4645 -25.2617 -20.3072 -20.0381 -16.5038
   -15.4595 -13.0920 -11.0673  -5.1344   0.3421   1.4835

          k =-0.3536 0.3536 0.3536 (   168 PWs)   bands (ev):

   -37.1223 -36.2436 -35.6651 -31.6303 -30.6268 -19.7609 -19.3337 -19.0511
   -18.8711 -18.2417 -10.5312  -6.2121   0.1007   0.8063

          k = 0.0000 0.0000 0.3536 (   165 PWs)   bands (ev):

   -35.8102 -35.2046 -30.9705 -26.1997 -25.1652 -23.9059 -23.0955 -20.6966
   -16.7596 -11.2431 -10.8312  -5.7341  -0.0557   1.3982

          k =-0.5303 0.1768 0.5303 (   164 PWs)   bands (ev):

   -36.7510 -31.5733 -30.8566 -27.1474 -25.6938 -23.9372 -21.3907 -18.6660
   -14.5827 -13.9069 -10.0731  -7.0531  -0.4804   0.8702

          k = 0.5303 0.5303-0.1768 (   164 PWs)   bands (ev):

   -35.3968 -31.8536 -30.6092 -29.6527 -26.3665 -22.9646 -21.4210 -18.5809
   -13.7145 -12.9513  -9.7564  -7.6503  -0.6317   1.1322

          k =-0.5303 0.5303 0.1768 (   164 PWs)   bands (ev):

   -38.1133 -35.0272 -28.9562 -28.5327 -23.5734 -22.6836 -20.1358 -17.3711
   -15.8065 -12.8806 -10.1896  -6.7523  -0.2772   0.2584

          k = 0.3536 0.3536 0.0000 (   164 PWs)   bands (ev):

   -34.1557 -33.9234 -33.5707 -24.1680 -22.0809 -21.6840 -20.4387 -19.6444
   -17.0495 -16.3795  -9.8132  -7.7745  -0.2136   1.8789

          k =-0.3536 0.3536 0.0000 (   164 PWs)   bands (ev):

   -37.1140 -32.5692 -28.2393 -27.1224 -25.4884 -21.3328 -19.4964 -19.1698
   -16.6774 -15.7312 -10.5398  -6.0886   0.0552   0.0949

          k = 0.0000 0.0000-0.7071 (   150 PWs)   bands (ev):

   -28.3542 -23.3558 -22.3869 -21.8205 -21.0623 -11.3134  -9.7186  -9.6862
    -7.5006  -5.9446  -0.4263  -0.3763  -0.0976   0.6493

          k = 0.7071 0.0000 0.3536 (   156 PWs)   bands (ev):

   -29.7463 -29.6778 -21.2469 -21.2029 -19.6694 -19.5865 -15.6894 -15.6487
    -8.9376  -8.9120  -8.7310  -8.6880  -0.0564   0.0454

     highest occupied level (ev):     2.2823

!    total energy              =    -367.03341840 Ry
     estimated scf accuracy    <       0.00000007 Ry

     The total energy is the sum of the following terms:
     one-electron contribution =    -160.43762982 Ry
     hartree contribution      =      90.29661222 Ry
     xc contribution           =    -100.14318274 Ry
     ewald contribution        =    -196.74921806 Ry

     convergence has been achieved in   9 iterations

     negative rho (up, down):  1.455E-01 0.000E+00

     Forces acting on atoms (cartesian axes, Ry/au):

     atom    1 type  1   force =     0.00000000    0.00000000    1.13650991
     atom    2 type  1   force =     0.00000000    0.00000000   -1.13650991

     Total force =     1.607268     Total SCF correction =     0.001628


     Computing stress (Cartesian axis) and pressure


     negative rho (up, down):  1.455E-01 0.000E+00
          total   stress  (Ry/bohr**3)                   (kbar)     P=   -74717.35
  -0.50801604  -0.00261377   0.00000000       -74731.74     -384.50        0.00
  -0.00261377  -0.50801604   0.00000000         -384.50   -74731.74        0.00
   0.00000000   0.00000000  -0.50772252            0.00        0.00   -74688.56

     Message from routine punch:
     Nothing written, as per user request (disk_io='none')

     init_run     :      0.17s CPU      0.18s WALL (       1 calls)
     electrons    :      0.78s CPU      0.82s WALL (       1 calls)
     forces       :      0.01s CPU      0.01s WALL (       1 calls)
     stress       :      0.08s CPU      0.08s WALL (       1 calls)

     Called by init_run:
     wfcinit      :      0.03s CPU      0.04s WALL (       1 calls)
     potinit      :      0.01s CPU      0.01s WALL (       1 calls)
     hinit0       :      0.12s CPU      0.12s WALL (       1 calls)

     Called by electrons:
     c_bands      :      0.62s CPU      0.66s WALL (       9 calls)
     sum_band     :      0.11s CPU      0.12s WALL (       9 calls)
     v_of_rho     :      0.00s CPU      0.00s WALL (      10 calls)
     newd         :      0.05s CPU      0.05s WALL (      10 calls)
     mix_rho      :      0.00s CPU      0.00s WALL (       9 calls)

     Called by c_bands:
     init_us_2    :      0.02s CPU      0.03s WALL (     378 calls)
     cegterg      :      0.56s CPU      0.59s WALL (     162 calls)

     Called by *egterg:
     cdiaghg      :      0.18s CPU      0.20s WALL (     779 calls)
     h_psi        :      0.31s CPU      0.32s WALL (     797 calls)
     s_psi        :      0.02s CPU      0.02s WALL (     797 calls)
     g_psi        :      0.00s CPU      0.00s WALL (     617 calls)

     Called by h_psi:
     h_psi:calbec :      0.02s CPU      0.02s WALL (     797 calls)
     vloc_psi     :      0.26s CPU      0.27s WALL (     797 calls)
     add_vuspsi   :      0.02s CPU      0.02s WALL (     797 calls)

     General routines
     calbec       :      0.03s CPU      0.03s WALL (    1265 calls)
     fft          :      0.02s CPU      0.02s WALL (      48 calls)
     ffts         :      0.00s CPU      0.00s WALL (       9 calls)
     fftw         :      0.22s CPU      0.24s WALL (   15522 calls)

     Parallel routines

     PWSCF        :      1.19s CPU      1.25s WALL


   This run was terminated on:   0:23:17   8Oct2025            

=------------------------------------------------------------------------------=
   JOB DONE.
=------------------------------------------------------------------------------=
