
     Program PWSCF v.7.4.1 starts on 20Oct2025 at 22: 4:37 

     This program is part of the open-source Quantum ESPRESSO suite
     for quantum simulation of materials; please cite
         "P. Giannozzi et al., J. Phys.:Condens. Matter 21 395502 (2009);
         "P. Giannozzi et al., J. Phys.:Condens. Matter 29 465901 (2017);
         "P. Giannozzi et al., J. Chem. Phys. 152 154105 (2020);
          URL http://www.quantum-espresso.org", 
     in publications or presentations arising from this work. More details at
     http://www.quantum-espresso.org/quote

     Parallel version (MPI), running on     2 processors

     MPI processes distributed on     1 nodes
     222 MiB available memory on the printing compute node when the environment starts

     Waiting for input...
     Reading input from standard input
Warning: card &CELL ignored
Warning: card / ignored

     Current dimensions of program PWSCF are:
     Max number of different atomic species (ntypx) = 10
     Max number of k-points (npk) =  40000
     Max angular momentum in pseudopotentials (lmaxx) =  4
     file Fe.pbe-nd-rrkjus.UPF: wavefunction(s)  4S renormalized
     Message from routine setup:
     using ibrav=0 with symmetry is DISCOURAGED, use correct ibrav instead

     R & G space division:  proc/nbgrp/npool/nimage =       2
     Subspace diagonalization in iterative solution of the eigenvalue problem:
     a serial algorithm will be used


     Parallelization info
     --------------------
     sticks:   dense  smooth     PW     G-vecs:    dense   smooth      PW
     Min         187      75     38                 2292      578     214
     Max         188      76     39                 2293      579     215
     Sum         375     151     77                 4585     1157     429

     Using Slab Decomposition



     bravais-lattice index     =            0
     lattice parameter (alat)  =       4.0914  a.u.
     unit-cell volume          =      52.7214 (a.u.)^3
     number of atoms/cell      =            1
     number of atomic types    =            1
     number of electrons       =         8.00
     number of Kohn-Sham states=            8
     kinetic-energy cutoff     =      30.0000  Ry
     charge density cutoff     =     300.0000  Ry
     scf convergence threshold =      1.0E-07
     mixing beta               =       0.5000
     number of iterations used =            8  plain     mixing
     Exchange-correlation=  SLA  PW   PBE  PBE
                           (   1   4   3   4   0   0   0)

     celldm(1)=   4.091377  celldm(2)=   0.000000  celldm(3)=   0.000000
     celldm(4)=   0.000000  celldm(5)=   0.000000  celldm(6)=   0.000000

     crystal axes: (cart. coord. in units of alat)
               a(1) = (  -0.577350   0.577350   0.577350 )  
               a(2) = (   0.577350  -0.577350   0.577350 )  
               a(3) = (   0.577350   0.577350  -0.577350 )  

     reciprocal axes: (cart. coord. in units 2 pi/alat)
               b(1) = (  0.000000  0.866025  0.866025 )  
               b(2) = (  0.866025  0.000000  0.866025 )  
               b(3) = (  0.866025  0.866025  0.000000 )  


     PseudoPot. # 1 for Fe read from file:
     /home/bond/Software/QE/qe-7.4.1/pseudo/Fe.pbe-nd-rrkjus.UPF
     MD5 check sum: 398036227a04b607635f6f5e8dfd8242
     Pseudo is Ultrasoft + core correction, Zval =  8.0
     Generated by new atomic code, or converted to UPF format
     Using radial grid of  957 points,  6 beta functions with: 
                l(1) =   0
                l(2) =   0
                l(3) =   1
                l(4) =   1
                l(5) =   2
                l(6) =   2
     Q(r) pseudized with 0 coefficients 


     atomic species   valence    mass     pseudopotential
     Fe                8.00    55.84500     Fe( 1.00)

     Starting magnetic structure 
     atomic species   magnetization
     Fe              0.700

     48 Sym. Ops., with inversion, found



   Cartesian axes

     site n.     atom                  positions (alat units)
         1        Fe     tau(   1) = (   0.0000000   0.0000000   0.0000000  )

     number of k points=   104  Methfessel-Paxton smearing, width (Ry)=  0.0200

     Number of k-points >= 100: set verbosity='high' to print them.

     Dense  grid:     4585 G-vectors     FFT dimensions: (  24,  24,  24)

     Smooth grid:     1157 G-vectors     FFT dimensions: (  15,  15,  15)

     Estimated max dynamical RAM per process >      12.73 MB

     Estimated total dynamical RAM >      25.47 MB
     Generating pointlists ...
     new r_m :   0.4125 (alat units)  1.6877 (a.u.) for type    1

     Initial potential from superposition of free atoms

     starting charge       7.9994, renormalised to       8.0000
     Starting wfcs are    6 randomized atomic wfcs +    2 random wfcs

     total cpu time spent up to now is        0.9 secs

     Self-consistent Calculation

     iteration #  1     ecut=    30.00 Ry     beta= 0.50
     Davidson diagonalization with overlap
     ethr =  1.00E-02,  avg # of iterations =  4.5

     total cpu time spent up to now is        1.8 secs

     total energy              =     -55.59367814 Ry
     estimated scf accuracy    <       0.26227054 Ry

     total magnetization       =     2.49 Bohr mag/cell
     absolute magnetization    =     2.49 Bohr mag/cell

     iteration #  2     ecut=    30.00 Ry     beta= 0.50
     Davidson diagonalization with overlap
     ethr =  3.28E-03,  avg # of iterations =  1.3

     total cpu time spent up to now is        2.3 secs

     total energy              =     -55.67244282 Ry
     estimated scf accuracy    <       0.03067488 Ry

     total magnetization       =     2.32 Bohr mag/cell
     absolute magnetization    =     2.32 Bohr mag/cell

     iteration #  3     ecut=    30.00 Ry     beta= 0.50
     Davidson diagonalization with overlap
     ethr =  3.83E-04,  avg # of iterations =  1.2

     total cpu time spent up to now is        2.8 secs

     total energy              =     -55.69114874 Ry
     estimated scf accuracy    <       0.01215119 Ry

     total magnetization       =     2.12 Bohr mag/cell
     absolute magnetization    =     2.13 Bohr mag/cell

     iteration #  4     ecut=    30.00 Ry     beta= 0.50
     Davidson diagonalization with overlap
     ethr =  1.52E-04,  avg # of iterations =  1.6

     total cpu time spent up to now is        3.4 secs

     total energy              =     -55.69751721 Ry
     estimated scf accuracy    <       0.00201177 Ry

     total magnetization       =     1.70 Bohr mag/cell
     absolute magnetization    =     1.77 Bohr mag/cell

     iteration #  5     ecut=    30.00 Ry     beta= 0.50
     Davidson diagonalization with overlap
     ethr =  2.51E-05,  avg # of iterations =  4.8

     total cpu time spent up to now is        4.1 secs

     total energy              =     -55.69904693 Ry
     estimated scf accuracy    <       0.00354708 Ry

     total magnetization       =     1.79 Bohr mag/cell
     absolute magnetization    =     1.85 Bohr mag/cell

     iteration #  6     ecut=    30.00 Ry     beta= 0.50
     Davidson diagonalization with overlap
     ethr =  2.51E-05,  avg # of iterations =  1.1

     total cpu time spent up to now is        4.4 secs

     total energy              =     -55.70086563 Ry
     estimated scf accuracy    <       0.00116071 Ry

     total magnetization       =     1.59 Bohr mag/cell
     absolute magnetization    =     1.65 Bohr mag/cell

     iteration #  7     ecut=    30.00 Ry     beta= 0.50
     Davidson diagonalization with overlap
     ethr =  1.45E-05,  avg # of iterations =  1.1

     total cpu time spent up to now is        4.8 secs

     total energy              =     -55.70100654 Ry
     estimated scf accuracy    <       0.00020023 Ry

     total magnetization       =     1.54 Bohr mag/cell
     absolute magnetization    =     1.60 Bohr mag/cell

     iteration #  8     ecut=    30.00 Ry     beta= 0.50
     Davidson diagonalization with overlap
     ethr =  2.50E-06,  avg # of iterations =  2.3

     total cpu time spent up to now is        5.3 secs

     total energy              =     -55.70099571 Ry
     estimated scf accuracy    <       0.00009412 Ry

     total magnetization       =     1.55 Bohr mag/cell
     absolute magnetization    =     1.60 Bohr mag/cell

     iteration #  9     ecut=    30.00 Ry     beta= 0.50
     Davidson diagonalization with overlap
     ethr =  1.18E-06,  avg # of iterations =  1.5

     total cpu time spent up to now is        5.7 secs

     total energy              =     -55.70105313 Ry
     estimated scf accuracy    <       0.00000033 Ry

     total magnetization       =     1.52 Bohr mag/cell
     absolute magnetization    =     1.57 Bohr mag/cell

     iteration # 10     ecut=    30.00 Ry     beta= 0.50
     Davidson diagonalization with overlap
     ethr =  4.09E-09,  avg # of iterations =  6.8

     total cpu time spent up to now is        6.6 secs

     total energy              =     -55.70105607 Ry
     estimated scf accuracy    <       0.00000037 Ry

     total magnetization       =     1.52 Bohr mag/cell
     absolute magnetization    =     1.57 Bohr mag/cell

     iteration # 11     ecut=    30.00 Ry     beta= 0.50
     Davidson diagonalization with overlap
     ethr =  4.09E-09,  avg # of iterations =  1.4

     Magnetic moment per site  (integrated on atomic sphere of radius R)
     atom   1 (R=0.413)  charge=  6.2170  magn=  1.5255

     total cpu time spent up to now is        7.0 secs

     End of self-consistent calculation

     Number of k-points >= 100: set verbosity='high' to print the bands.

     the Fermi energy is    21.7193 ev

!    total energy              =     -55.70105645 Ry
     estimated scf accuracy    <       0.00000004 Ry
     smearing contrib. (-TS)   =       0.00028389 Ry
     internal energy E=F+TS    =     -55.70134035 Ry

     The total energy is F=E-TS. E is the sum of the following terms:
     one-electron contribution =      15.68344269 Ry
     hartree contribution      =       4.67566712 Ry
     xc contribution           =     -26.75998534 Ry
     ewald contribution        =     -49.30046481 Ry

     total magnetization       =     1.52 Bohr mag/cell
     absolute magnetization    =     1.57 Bohr mag/cell

     convergence has been achieved in  11 iterations

     Forces acting on atoms (cartesian axes, Ry/au):

     atom    1 type  1   force =     0.00000000    0.00000000    0.00000000

     Total force =     0.000000     Total SCF correction =     0.000000


     Computing stress (Cartesian axis) and pressure

          total   stress  (Ry/bohr**3)                   (kbar)     P=     1661.58
   0.01129518  -0.00000000  -0.00000000         1661.58       -0.00       -0.00
  -0.00000000   0.01129518  -0.00000000           -0.00     1661.58       -0.00
  -0.00000000  -0.00000000   0.01129518           -0.00       -0.00     1661.58

     Message from routine punch:
     Nothing written, as per user request (disk_io='none')

     init_run     :      0.54s CPU      0.67s WALL (       1 calls)
     electrons    :      5.33s CPU      6.12s WALL (       1 calls)
     forces       :      0.05s CPU      0.05s WALL (       1 calls)
     stress       :      0.24s CPU      0.24s WALL (       1 calls)

     Called by init_run:
     wfcinit      :      0.14s CPU      0.19s WALL (       1 calls)
     potinit      :      0.04s CPU      0.04s WALL (       1 calls)
     hinit0       :      0.35s CPU      0.39s WALL (       1 calls)

     Called by electrons:
     c_bands      :      4.19s CPU      4.80s WALL (      11 calls)
     sum_band     :      0.87s CPU      1.04s WALL (      11 calls)
     v_of_rho     :      0.13s CPU      0.14s WALL (      12 calls)
     newd         :      0.13s CPU      0.16s WALL (      12 calls)
     mix_rho      :      0.01s CPU      0.01s WALL (      11 calls)

     Called by c_bands:
     init_us_2    :      0.14s CPU      0.18s WALL (    5200 calls)
     cegterg      :      3.88s CPU      4.44s WALL (    2288 calls)

     Called by *egterg:
     cdiaghg      :      0.67s CPU      0.78s WALL (    8029 calls)
     h_psi        :      2.69s CPU      3.09s WALL (    8237 calls)
     s_psi        :      0.05s CPU      0.06s WALL (    8237 calls)
     g_psi        :      0.02s CPU      0.02s WALL (    5741 calls)

     Called by h_psi:
     h_psi:calbec :      0.18s CPU      0.21s WALL (    8237 calls)
     vloc_psi     :      2.38s CPU      2.72s WALL (    8237 calls)
     add_vuspsi   :      0.06s CPU      0.07s WALL (    8237 calls)

     General routines
     calbec       :      0.27s CPU      0.32s WALL (   14061 calls)
     fft          :      0.20s CPU      0.23s WALL (     338 calls)
     ffts         :      0.01s CPU      0.02s WALL (      46 calls)
     fftw         :      2.26s CPU      2.62s WALL (  111786 calls)
     interpolate  :      0.02s CPU      0.02s WALL (      24 calls)

     Parallel routines

     PWSCF        :      6.33s CPU      7.32s WALL


   This run was terminated on:  22: 4:45  20Oct2025            

=------------------------------------------------------------------------------=
   JOB DONE.
=------------------------------------------------------------------------------=
