
     Program PWSCF v.7.4.1 starts on 21Oct2025 at 13:30:58 

     This program is part of the open-source Quantum ESPRESSO suite
     for quantum simulation of materials; please cite
         "P. Giannozzi et al., J. Phys.:Condens. Matter 21 395502 (2009);
         "P. Giannozzi et al., J. Phys.:Condens. Matter 29 465901 (2017);
         "P. Giannozzi et al., J. Chem. Phys. 152 154105 (2020);
          URL http://www.quantum-espresso.org", 
     in publications or presentations arising from this work. More details at
     http://www.quantum-espresso.org/quote

     Parallel version (MPI), running on     2 processors

     MPI processes distributed on     1 nodes
     750 MiB available memory on the printing compute node when the environment starts

     Waiting for input...
     Reading input from standard input
Warning: card &CELL ignored
Warning: card / ignored

     Current dimensions of program PWSCF are:
     Max number of different atomic species (ntypx) = 10
     Max number of k-points (npk) =  40000
     Max angular momentum in pseudopotentials (lmaxx) =  4
     file O.pz-rrkjus.UPF: wavefunction(s)  2S renormalized
     Message from routine setup:
     using ibrav=0 with symmetry is DISCOURAGED, use correct ibrav instead

     R & G space division:  proc/nbgrp/npool/nimage =       2
     Subspace diagonalization in iterative solution of the eigenvalue problem:
     a serial algorithm will be used


     Parallelization info
     --------------------
     sticks:   dense  smooth     PW     G-vecs:    dense   smooth      PW
     Min         516     254     74                12286     4354     709
     Max         517     255     75                12287     4355     710
     Sum        1033     509    149                24573     8709    1419

     Using Slab Decomposition



     bravais-lattice index     =            0
     lattice parameter (alat)  =       7.3227  a.u.
     unit-cell volume          =     392.6555 (a.u.)^3
     number of atoms/cell      =            5
     number of atomic types    =            3
     number of electrons       =        44.00
     number of Kohn-Sham states=           22
     kinetic-energy cutoff     =      30.0000  Ry
     charge density cutoff     =     240.0000  Ry
     scf convergence threshold =      1.0E-07
     mixing beta               =       0.7000
     number of iterations used =            8  plain     mixing
     energy convergence thresh.=      1.0E-04
     force convergence thresh. =      1.0E-03
     Exchange-correlation= SLA  PZ   NOGX NOGC
                           (   1   1   0   0   0   0   0)
     nstep                     =           50


     celldm(1)=   7.322689  celldm(2)=   0.000000  celldm(3)=   0.000000
     celldm(4)=   0.000000  celldm(5)=   0.000000  celldm(6)=   0.000000

     crystal axes: (cart. coord. in units of alat)
               a(1) = (   1.000000   0.000000   0.000000 )  
               a(2) = (   0.000000   1.000000   0.000000 )  
               a(3) = (   0.000000   0.000000   1.000000 )  

     reciprocal axes: (cart. coord. in units 2 pi/alat)
               b(1) = (  1.000000  0.000000  0.000000 )  
               b(2) = (  0.000000  1.000000  0.000000 )  
               b(3) = (  0.000000  0.000000  1.000000 )  


     PseudoPot. # 1 for O  read from file:
     /home/bond/Software/QE/qe-7.4.1/pseudo/O.pz-rrkjus.UPF
     MD5 check sum: 24fb942a68ef5d262e498166c462ef4a
     Pseudo is Ultrasoft, Zval =  6.0
     Generated by new atomic code, or converted to UPF format
     Using radial grid of 1269 points,  4 beta functions with: 
                l(1) =   0
                l(2) =   0
                l(3) =   1
                l(4) =   1
     Q(r) pseudized with 0 coefficients 


     PseudoPot. # 2 for Pb read from file:
     /home/bond/Software/QE/qe-7.4.1/pseudo/Pb.pz-d-van.UPF
     MD5 check sum: 4e1e5920686a026ae26139ac417581ff
     Pseudo is Ultrasoft, Zval = 14.0
     Generated by new atomic code, or converted to UPF format
     Using radial grid of  899 points,  6 beta functions with: 
                l(1) =   0
                l(2) =   0
                l(3) =   1
                l(4) =   1
                l(5) =   2
                l(6) =   2
     Q(r) pseudized with  8 coefficients,  rinner =    1.000   1.000   1.000
                                                       1.000   1.000

     PseudoPot. # 3 for Ti read from file:
     /home/bond/Software/QE/qe-7.4.1/pseudo/Ti.pz-sp-van_ak.UPF
     MD5 check sum: 545d0e6e05332b8871a8093f427cb0ca
     Pseudo is Ultrasoft, Zval = 12.0
     Generated by new atomic code, or converted to UPF format
     Using radial grid of  851 points,  6 beta functions with: 
                l(1) =   0
                l(2) =   0
                l(3) =   1
                l(4) =   1
                l(5) =   2
                l(6) =   2
     Q(r) pseudized with  8 coefficients,  rinner =    1.000   1.000   1.000
                                                       1.000   1.000

     atomic species   valence    mass     pseudopotential
     O                 6.00    15.99900     O ( 1.00)
     Pb               14.00   207.20000     Pb( 1.00)
     Ti               12.00    47.86700     Ti( 1.00)

      8 Sym. Ops. (no inversion) found



   Cartesian axes

     site n.     atom                  positions (alat units)
         1        Pb     tau(   1) = (   0.0000000   0.0000000   0.0000000  )
         2        Ti     tau(   2) = (   0.5000000   0.5000000   0.5274994  )
         3        O      tau(   3) = (   0.0000000   0.5000000   0.5000000  )
         4        O      tau(   4) = (   0.5000000   0.0000000   0.5000000  )
         5        O      tau(   5) = (   0.5000000   0.5000000   0.0000000  )

     number of k points=     6
                       cart. coord. in units 2pi/alat
        k(    1) = (   0.1250000   0.1250000   0.1250000), wk =   0.2500000
        k(    2) = (   0.1250000   0.1250000   0.3750000), wk =   0.2500000
        k(    3) = (   0.1250000   0.3750000   0.3750000), wk =   0.5000000
        k(    4) = (   0.3750000   0.3750000   0.3750000), wk =   0.2500000
        k(    5) = (   0.3750000  -0.1250000   0.1250000), wk =   0.5000000
        k(    6) = (   0.3750000  -0.3750000   0.1250000), wk =   0.2500000

     Dense  grid:    24573 G-vectors     FFT dimensions: (  40,  40,  40)

     Smooth grid:     8709 G-vectors     FFT dimensions: (  25,  25,  25)

     Estimated max dynamical RAM per process >      51.19 MB

     Estimated total dynamical RAM >     102.38 MB

     Initial potential from superposition of free atoms

     starting charge      42.9982, renormalised to      44.0000
     Starting wfcs are   31 randomized atomic wfcs

     total cpu time spent up to now is        1.7 secs

     Self-consistent Calculation

     iteration #  1     ecut=    30.00 Ry     beta= 0.70
     Davidson diagonalization with overlap
     ethr =  1.00E-02,  avg # of iterations =  2.0

     total cpu time spent up to now is        2.1 secs

     total energy              =    -332.62151998 Ry
     estimated scf accuracy    <       1.09316408 Ry

     iteration #  2     ecut=    30.00 Ry     beta= 0.70
     Davidson diagonalization with overlap
     ethr =  2.48E-03,  avg # of iterations =  6.3

     total cpu time spent up to now is        2.6 secs

     total energy              =    -332.42402900 Ry
     estimated scf accuracy    <       3.90907129 Ry

     iteration #  3     ecut=    30.00 Ry     beta= 0.70
     Davidson diagonalization with overlap
     ethr =  2.48E-03,  avg # of iterations =  5.2

     total cpu time spent up to now is        3.0 secs

     total energy              =    -333.15804681 Ry
     estimated scf accuracy    <       0.20803789 Ry

     iteration #  4     ecut=    30.00 Ry     beta= 0.70
     Davidson diagonalization with overlap
     ethr =  4.73E-04,  avg # of iterations =  2.0

     total cpu time spent up to now is        3.4 secs

     total energy              =    -333.15569817 Ry
     estimated scf accuracy    <       0.05535930 Ry

     iteration #  5     ecut=    30.00 Ry     beta= 0.70
     Davidson diagonalization with overlap
     ethr =  1.26E-04,  avg # of iterations =  4.8

     total cpu time spent up to now is        3.9 secs

     total energy              =    -333.18168560 Ry
     estimated scf accuracy    <       0.02457316 Ry

     iteration #  6     ecut=    30.00 Ry     beta= 0.70
     Davidson diagonalization with overlap
     ethr =  5.58E-05,  avg # of iterations =  2.3

     total cpu time spent up to now is        4.2 secs

     total energy              =    -333.18024168 Ry
     estimated scf accuracy    <       0.00900312 Ry

     iteration #  7     ecut=    30.00 Ry     beta= 0.70
     Davidson diagonalization with overlap
     ethr =  2.05E-05,  avg # of iterations =  4.3

     total cpu time spent up to now is        4.7 secs

     total energy              =    -333.18271407 Ry
     estimated scf accuracy    <       0.00013283 Ry

     iteration #  8     ecut=    30.00 Ry     beta= 0.70
     Davidson diagonalization with overlap
     ethr =  3.02E-07,  avg # of iterations =  5.2

     total cpu time spent up to now is        5.1 secs

     total energy              =    -333.18277818 Ry
     estimated scf accuracy    <       0.00033065 Ry

     iteration #  9     ecut=    30.00 Ry     beta= 0.70
     Davidson diagonalization with overlap
     ethr =  3.02E-07,  avg # of iterations =  1.0

     total cpu time spent up to now is        5.5 secs

     total energy              =    -333.18270402 Ry
     estimated scf accuracy    <       0.00025553 Ry

     iteration # 10     ecut=    30.00 Ry     beta= 0.70
     Davidson diagonalization with overlap
     ethr =  3.02E-07,  avg # of iterations =  4.7

     total cpu time spent up to now is        6.0 secs

     total energy              =    -333.18273469 Ry
     estimated scf accuracy    <       0.00000746 Ry

     iteration # 11     ecut=    30.00 Ry     beta= 0.70
     Davidson diagonalization with overlap
     ethr =  1.70E-08,  avg # of iterations =  4.7

     total cpu time spent up to now is        6.4 secs

     total energy              =    -333.18273753 Ry
     estimated scf accuracy    <       0.00000078 Ry

     iteration # 12     ecut=    30.00 Ry     beta= 0.70
     Davidson diagonalization with overlap
     ethr =  1.78E-09,  avg # of iterations =  2.0

     total cpu time spent up to now is        6.8 secs

     total energy              =    -333.18273740 Ry
     estimated scf accuracy    <       0.00000041 Ry

     iteration # 13     ecut=    30.00 Ry     beta= 0.70
     Davidson diagonalization with overlap
     ethr =  9.36E-10,  avg # of iterations =  4.0

     total cpu time spent up to now is        7.2 secs

     End of self-consistent calculation

          k = 0.1250 0.1250 0.1250 (  1090 PWs)   bands (ev):

   -44.5929 -21.2455 -21.1992 -21.1982  -6.3248  -5.2707  -5.2218  -3.9668
    -3.9618  -3.9493  -3.7822  -3.7767   4.6541   7.3022   7.3272   8.0911
     9.0654   9.1270   9.7889   9.8684  10.0327  10.1720

          k = 0.1250 0.1250 0.3750 (  1095 PWs)   bands (ev):

   -44.5917 -21.3039 -21.1970 -21.1960  -5.8925  -5.1168  -5.0978  -4.0273
    -3.9620  -3.9452  -3.8751  -3.7523   3.8993   6.8336   7.2717   7.8637
     8.4893   8.6779   9.4232   9.9247  10.1665  10.9112

          k = 0.1250 0.3750 0.3750 (  1087 PWs)   bands (ev):

   -44.5904 -21.3003 -21.2529 -21.1944  -5.6780  -5.0229  -4.9285  -4.0007
    -3.9560  -3.9023  -3.8114  -3.6516   3.5439   6.7214   6.9389   7.1991
     7.5118   8.7154   9.4103   9.5171  10.0534  10.7053

          k = 0.3750 0.3750 0.3750 (  1082 PWs)   bands (ev):

   -44.5891 -21.2978 -21.2505 -21.2502  -5.3062  -5.1425  -5.1077  -3.9131
    -3.9068  -3.6219  -3.5576  -3.5417   4.1681   5.9242   5.9659   6.7119
     7.0857   7.1146   7.9947  10.6466  10.6911  10.7681

          k = 0.3750-0.1250 0.1250 (  1095 PWs)   bands (ev):

   -44.5917 -21.2566 -21.2432 -21.1965  -5.9261  -5.1388  -5.0573  -4.0247
    -3.9585  -3.9467  -3.8812  -3.7475   3.9197   6.8792   7.3627   7.8590
     8.4521   8.7872   9.3343   9.9315  10.0602  10.8606

          k = 0.3750-0.3750 0.1250 (  1087 PWs)   bands (ev):

   -44.5904 -21.2535 -21.2525 -21.2410  -5.7416  -4.9822  -4.9075  -3.9951
    -3.9542  -3.8963  -3.8090  -3.6738   3.5624   6.8386   6.8813   7.1745
     7.4789   8.6895   9.4854   9.5053  10.0370  10.7671

     highest occupied level (ev):    10.9112

!    total energy              =    -333.18273750 Ry
     estimated scf accuracy    <       0.00000001 Ry

     The total energy is the sum of the following terms:
     one-electron contribution =     -76.75270452 Ry
     hartree contribution      =      66.38053576 Ry
     xc contribution           =     -49.66042048 Ry
     ewald contribution        =    -273.15014826 Ry

     convergence has been achieved in  13 iterations

     Forces acting on atoms (cartesian axes, Ry/au):

     atom    1 type  2   force =     0.00000000    0.00000000    0.01201459
     atom    2 type  3   force =     0.00000000    0.00000000   -0.02267589
     atom    3 type  1   force =     0.00000000    0.00000000    0.00003546
     atom    4 type  1   force =     0.00000000    0.00000000    0.00003546
     atom    5 type  1   force =     0.00000000    0.00000000    0.01059038

     Total force =     0.010590     Total SCF correction =     0.000054


     Computing stress (Cartesian axis) and pressure

          total   stress  (Ry/bohr**3)                   (kbar)     P=       -7.29
  -0.00008918   0.00000000   0.00000000          -13.12        0.00        0.00
   0.00000000  -0.00008918   0.00000000            0.00      -13.12        0.00
   0.00000000   0.00000000   0.00002976            0.00        0.00        4.38


     BFGS Geometry Optimization
     Energy error            =      1.1E-04 Ry
     Gradient error          =      1.1E-02 Ry/Bohr

     number of scf cycles    =   1
     number of bfgs steps    =   0

     energy             new  =    -333.1827375004 Ry

     new trust radius        =       0.0105903808 bohr
     new conv_thr            =       0.0000001000 Ry


ATOMIC_POSITIONS (angstrom)
Pb               0.0000000000        0.0000000000        0.0000000000    0   0   0
Ti               1.9375000000        1.9375000000        2.0440600000    0   0   0
O                0.0000000000        1.9375000000        1.9375187651
O                1.9375000000        0.0000000000        1.9375187651
O                1.9375000000        1.9375000000        0.0056041882


     Message from routine punch:
     Nothing written, as per user request (disk_io='none')
     NEW-OLD atomic charge density approx. for the potential

     total cpu time spent up to now is        8.8 secs

     Self-consistent Calculation

     iteration #  1     ecut=    30.00 Ry     beta= 0.70
     Davidson diagonalization with overlap
     ethr =  1.00E-06,  avg # of iterations =  3.5

     Threshold (ethr) on eigenvalues was too large:
     Diagonalizing with lowered threshold

     Davidson diagonalization with overlap
     ethr =  3.70E-08,  avg # of iterations =  4.5

     total cpu time spent up to now is        9.7 secs

     total energy              =    -333.18282661 Ry
     estimated scf accuracy    <       0.00002136 Ry

     iteration #  2     ecut=    30.00 Ry     beta= 0.70
     Davidson diagonalization with overlap
     ethr =  4.85E-08,  avg # of iterations =  4.5

     total cpu time spent up to now is       10.1 secs

     total energy              =    -333.18282891 Ry
     estimated scf accuracy    <       0.00001260 Ry

     iteration #  3     ecut=    30.00 Ry     beta= 0.70
     Davidson diagonalization with overlap
     ethr =  2.86E-08,  avg # of iterations =  4.5

     total cpu time spent up to now is       10.6 secs

     total energy              =    -333.18283183 Ry
     estimated scf accuracy    <       0.00000396 Ry

     iteration #  4     ecut=    30.00 Ry     beta= 0.70
     Davidson diagonalization with overlap
     ethr =  8.99E-09,  avg # of iterations =  3.8

     total cpu time spent up to now is       11.0 secs

     End of self-consistent calculation

          k = 0.1250 0.1250 0.1250 (  1090 PWs)   bands (ev):

   -44.6008 -21.2483 -21.2070 -21.2060  -6.3246  -5.2679  -5.2230  -3.9657
    -3.9611  -3.9486  -3.7811  -3.7760   4.6553   7.3031   7.3261   8.0904
     9.0720   9.1314   9.7992   9.8701  10.0312  10.1735

          k = 0.1250 0.1250 0.3750 (  1095 PWs)   bands (ev):

   -44.5995 -21.3067 -21.2048 -21.2038  -5.8938  -5.1128  -5.0992  -4.0263
    -3.9609  -3.9445  -3.8745  -3.7511   3.9023   6.8344   7.2757   7.8611
     8.4903   8.6857   9.4232   9.9265  10.1648  10.9111

          k = 0.1250 0.3750 0.3750 (  1087 PWs)   bands (ev):

   -44.5982 -21.3031 -21.2606 -21.2022  -5.6792  -5.0195  -4.9289  -3.9997
    -3.9550  -3.9013  -3.8104  -3.6513   3.5458   6.7262   6.9363   7.1990
     7.5117   8.7142   9.4171   9.5163  10.0557  10.7086

          k = 0.3750 0.3750 0.3750 (  1082 PWs)   bands (ev):

   -44.5970 -21.3006 -21.2583 -21.2580  -5.3050  -5.1409  -5.1088  -3.9119
    -3.9061  -3.6206  -3.5563  -3.5416   4.1695   5.9278   5.9661   6.7114
     7.0857   7.1119   7.9966  10.6515  10.6940  10.7681

          k = 0.3750-0.1250 0.1250 (  1095 PWs)   bands (ev):

   -44.5995 -21.2643 -21.2461 -21.2044  -5.9249  -5.1370  -5.0586  -4.0239
    -3.9577  -3.9459  -3.8801  -3.7468   3.9210   6.8777   7.3636   7.8594
     8.4530   8.7876   9.3408   9.9339  10.0651  10.8635

          k = 0.3750-0.3750 0.1250 (  1087 PWs)   bands (ev):

   -44.5983 -21.2612 -21.2603 -21.2439  -5.7381  -4.9831  -4.9089  -3.9945
    -3.9534  -3.8957  -3.8083  -3.6718   3.5626   6.8374   6.8803   7.1790
     7.4838   8.6907   9.4869   9.5054  10.0383  10.7661

     highest occupied level (ev):    10.9111

!    total energy              =    -333.18283255 Ry
     estimated scf accuracy    <       0.00000008 Ry

     The total energy is the sum of the following terms:
     one-electron contribution =     -76.69958861 Ry
     hartree contribution      =      66.35131298 Ry
     xc contribution           =     -49.65829481 Ry
     ewald contribution        =    -273.17626211 Ry

     convergence has been achieved in   4 iterations

     Forces acting on atoms (cartesian axes, Ry/au):

     atom    1 type  2   force =     0.00000000    0.00000000    0.01162891
     atom    2 type  3   force =     0.00000000    0.00000000   -0.02116699
     atom    3 type  1   force =     0.00000000    0.00000000    0.00113689
     atom    4 type  1   force =     0.00000000    0.00000000    0.00113689
     atom    5 type  1   force =     0.00000000    0.00000000    0.00726430

     Total force =     0.007440     Total SCF correction =     0.000570


     Computing stress (Cartesian axis) and pressure

          total   stress  (Ry/bohr**3)                   (kbar)     P=       -8.44
  -0.00009264   0.00000000   0.00000000          -13.63        0.00        0.00
   0.00000000  -0.00009264   0.00000000            0.00      -13.63        0.00
   0.00000000   0.00000000   0.00001313            0.00        0.00        1.93

     Energy error            =      9.5E-05 Ry
     Gradient error          =      7.3E-03 Ry/Bohr

     number of scf cycles    =   2
     number of bfgs steps    =   1

     energy             old  =    -333.1827375004 Ry
     energy             new  =    -333.1828325503 Ry

     CASE: energy            _new < energy            _old

     new trust radius        =       0.0116494189 bohr
     new conv_thr            =       0.0000000010 Ry


ATOMIC_POSITIONS (angstrom)
Pb               0.0000000000        0.0000000000        0.0000000000    0   0   0
Ti               1.9375000000        1.9375000000        2.0440600000    0   0   0
O                0.0000000000        1.9375000000        1.9383956270
O                1.9375000000        0.0000000000        1.9383956270
O                1.9375000000        1.9375000000        0.0117687952


     Message from routine punch:
     Nothing written, as per user request (disk_io='none')
     NEW-OLD atomic charge density approx. for the potential

     total cpu time spent up to now is       12.5 secs

     Self-consistent Calculation

     iteration #  1     ecut=    30.00 Ry     beta= 0.70
     Davidson diagonalization with overlap
     ethr =  1.00E-06,  avg # of iterations =  4.2

     Threshold (ethr) on eigenvalues was too large:
     Diagonalizing with lowered threshold

     Davidson diagonalization with overlap
     ethr =  4.55E-08,  avg # of iterations =  4.8

     total cpu time spent up to now is       13.2 secs

     total energy              =    -333.18289449 Ry
     estimated scf accuracy    <       0.00002389 Ry

     iteration #  2     ecut=    30.00 Ry     beta= 0.70
     Davidson diagonalization with overlap
     ethr =  5.43E-08,  avg # of iterations =  4.3

     total cpu time spent up to now is       13.7 secs

     total energy              =    -333.18289590 Ry
     estimated scf accuracy    <       0.00001676 Ry

     iteration #  3     ecut=    30.00 Ry     beta= 0.70
     Davidson diagonalization with overlap
     ethr =  3.81E-08,  avg # of iterations =  4.5

     total cpu time spent up to now is       14.2 secs

     total energy              =    -333.18289990 Ry
     estimated scf accuracy    <       0.00000484 Ry

     iteration #  4     ecut=    30.00 Ry     beta= 0.70
     Davidson diagonalization with overlap
     ethr =  1.10E-08,  avg # of iterations =  3.5

     total cpu time spent up to now is       14.7 secs

     total energy              =    -333.18290064 Ry
     estimated scf accuracy    <       0.00000017 Ry

     iteration #  5     ecut=    30.00 Ry     beta= 0.70
     Davidson diagonalization with overlap
     ethr =  3.92E-10,  avg # of iterations =  6.7

     total cpu time spent up to now is       15.2 secs

     total energy              =    -333.18290083 Ry
     estimated scf accuracy    <       0.00000041 Ry

     iteration #  6     ecut=    30.00 Ry     beta= 0.70
     Davidson diagonalization with overlap
     ethr =  3.92E-10,  avg # of iterations =  3.3

     total cpu time spent up to now is       15.7 secs

     total energy              =    -333.18290080 Ry
     estimated scf accuracy    <       0.00000015 Ry

     iteration #  7     ecut=    30.00 Ry     beta= 0.70
     Davidson diagonalization with overlap
     ethr =  3.50E-10,  avg # of iterations =  4.2

     total cpu time spent up to now is       16.2 secs

     total energy              =    -333.18290083 Ry
     estimated scf accuracy    <          2.7E-09 Ry

     iteration #  8     ecut=    30.00 Ry     beta= 0.70
     Davidson diagonalization with overlap
     ethr =  6.13E-12,  avg # of iterations =  6.8

     total cpu time spent up to now is       16.7 secs

     total energy              =    -333.18290083 Ry
     estimated scf accuracy    <       0.00000001 Ry

     iteration #  9     ecut=    30.00 Ry     beta= 0.70
     Davidson diagonalization with overlap
     ethr =  6.13E-12,  avg # of iterations =  5.2

     total cpu time spent up to now is       17.2 secs

     End of self-consistent calculation

          k = 0.1250 0.1250 0.1250 (  1090 PWs)   bands (ev):

   -44.6076 -21.2502 -21.2140 -21.2129  -6.3258  -5.2665  -5.2254  -3.9638
    -3.9596  -3.9470  -3.7795  -3.7749   4.6565   7.3032   7.3240   8.0892
     9.0783   9.1343   9.8100   9.8710  10.0280  10.1730

          k = 0.1250 0.1250 0.3750 (  1095 PWs)   bands (ev):

   -44.6063 -21.3085 -21.2117 -21.2108  -5.8964  -5.1102  -5.1019  -4.0245
    -3.9590  -3.9430  -3.8734  -3.7495   3.9055   6.8341   7.2793   7.8579
     8.4898   8.6927   9.4222   9.9275  10.1618  10.9098

          k = 0.1250 0.3750 0.3750 (  1087 PWs)   bands (ev):

   -44.6051 -21.3050 -21.2676 -21.2092  -5.6815  -5.0176  -4.9303  -3.9979
    -3.9533  -3.8997  -3.8090  -3.6506   3.5477   6.7308   6.9319   7.1980
     7.5106   8.7119   9.4226   9.5145  10.0572  10.7106

          k = 0.3750 0.3750 0.3750 (  1082 PWs)   bands (ev):

   -44.6038 -21.3024 -21.2652 -21.2649  -5.3048  -5.1402  -5.1107  -3.9100
    -3.9047  -3.6190  -3.5549  -3.5412   4.1707   5.9307   5.9655   6.7102
     7.0840   7.1078   7.9981  10.6551  10.6953  10.7669

          k = 0.3750-0.1250 0.1250 (  1095 PWs)   bands (ev):

   -44.6064 -21.2712 -21.2480 -21.2113  -5.9252  -5.1366  -5.0608  -4.0223
    -3.9560  -3.9443  -3.8785  -3.7456   3.9222   6.8753   7.3636   7.8585
     8.4529   8.7867   9.3464   9.9352  10.0692  10.8653

          k = 0.3750-0.3750 0.1250 (  1087 PWs)   bands (ev):

   -44.6051 -21.2681 -21.2672 -21.2458  -5.7358  -4.9851  -4.9113  -3.9931
    -3.9518  -3.8945  -3.8070  -3.6695   3.5627   6.8355   6.8782   7.1825
     7.4877   8.6902   9.4870   9.5042  10.0391  10.7638

     highest occupied level (ev):    10.9098

!    total energy              =    -333.18290083 Ry
     estimated scf accuracy    <          1.3E-10 Ry

     The total energy is the sum of the following terms:
     one-electron contribution =     -76.65218214 Ry
     hartree contribution      =      66.32665798 Ry
     xc contribution           =     -49.65666269 Ry
     ewald contribution        =    -273.20071398 Ry

     convergence has been achieved in   9 iterations

     Forces acting on atoms (cartesian axes, Ry/au):

     atom    1 type  2   force =     0.00000000    0.00000000    0.01226225
     atom    2 type  3   force =     0.00000000    0.00000000   -0.02009567
     atom    3 type  1   force =     0.00000000    0.00000000    0.00200586
     atom    4 type  1   force =     0.00000000    0.00000000    0.00200586
     atom    5 type  1   force =     0.00000000    0.00000000    0.00382169

     Total force =     0.004759     Total SCF correction =     0.000002


     Computing stress (Cartesian axis) and pressure

          total   stress  (Ry/bohr**3)                   (kbar)     P=       -9.39
  -0.00009407   0.00000000   0.00000000          -13.84        0.00        0.00
   0.00000000  -0.00009407   0.00000000            0.00      -13.84        0.00
   0.00000000   0.00000000  -0.00000344            0.00        0.00       -0.51

     Energy error            =      6.8E-05 Ry
     Gradient error          =      3.8E-03 Ry/Bohr

     number of scf cycles    =   3
     number of bfgs steps    =   2

     energy             old  =    -333.1828325503 Ry
     energy             new  =    -333.1829008313 Ry

     CASE: energy            _new < energy            _old

     new trust radius        =       0.0174741284 bohr
     new conv_thr            =       0.0000000010 Ry


ATOMIC_POSITIONS (angstrom)
Pb               0.0000000000        0.0000000000        0.0000000000    0   0   0
Ti               1.9375000000        1.9375000000        2.0440600000    0   0   0
O                0.0000000000        1.9375000000        1.9412980890
O                1.9375000000        0.0000000000        1.9412980890
O                1.9375000000        1.9375000000        0.0210157057


     Message from routine punch:
     Nothing written, as per user request (disk_io='none')
     NEW-OLD atomic charge density approx. for the potential

     total cpu time spent up to now is       18.7 secs

     Self-consistent Calculation

     iteration #  1     ecut=    30.00 Ry     beta= 0.70
     Davidson diagonalization with overlap
     ethr =  1.00E-06,  avg # of iterations =  4.8

     total cpu time spent up to now is       19.3 secs

     total energy              =    -333.18294450 Ry
     estimated scf accuracy    <       0.00005426 Ry

     iteration #  2     ecut=    30.00 Ry     beta= 0.70
     Davidson diagonalization with overlap
     ethr =  1.23E-07,  avg # of iterations =  4.2

     total cpu time spent up to now is       19.8 secs

     total energy              =    -333.18294982 Ry
     estimated scf accuracy    <       0.00003001 Ry

     iteration #  3     ecut=    30.00 Ry     beta= 0.70
     Davidson diagonalization with overlap
     ethr =  6.82E-08,  avg # of iterations =  4.3

     total cpu time spent up to now is       20.2 secs

     total energy              =    -333.18295715 Ry
     estimated scf accuracy    <       0.00001281 Ry

     iteration #  4     ecut=    30.00 Ry     beta= 0.70
     Davidson diagonalization with overlap
     ethr =  2.91E-08,  avg # of iterations =  3.8

     total cpu time spent up to now is       20.6 secs

     total energy              =    -333.18295904 Ry
     estimated scf accuracy    <       0.00000030 Ry

     iteration #  5     ecut=    30.00 Ry     beta= 0.70
     Davidson diagonalization with overlap
     ethr =  6.82E-10,  avg # of iterations =  6.3

     total cpu time spent up to now is       21.1 secs

     total energy              =    -333.18295943 Ry
     estimated scf accuracy    <       0.00000053 Ry

     iteration #  6     ecut=    30.00 Ry     beta= 0.70
     Davidson diagonalization with overlap
     ethr =  6.82E-10,  avg # of iterations =  2.7

     total cpu time spent up to now is       21.5 secs

     total energy              =    -333.18295938 Ry
     estimated scf accuracy    <       0.00000024 Ry

     iteration #  7     ecut=    30.00 Ry     beta= 0.70
     Davidson diagonalization with overlap
     ethr =  5.45E-10,  avg # of iterations =  4.7

     total cpu time spent up to now is       21.9 secs

     total energy              =    -333.18295944 Ry
     estimated scf accuracy    <          9.0E-09 Ry

     iteration #  8     ecut=    30.00 Ry     beta= 0.70
     Davidson diagonalization with overlap
     ethr =  2.06E-11,  avg # of iterations =  3.3

     total cpu time spent up to now is       22.3 secs

     total energy              =    -333.18295944 Ry
     estimated scf accuracy    <          7.1E-09 Ry

     iteration #  9     ecut=    30.00 Ry     beta= 0.70
     Davidson diagonalization with overlap
     ethr =  1.61E-11,  avg # of iterations =  4.5

     total cpu time spent up to now is       22.7 secs

     End of self-consistent calculation

          k = 0.1250 0.1250 0.1250 (  1090 PWs)   bands (ev):

   -44.6177 -21.2535 -21.2243 -21.2233  -6.3266  -5.2637  -5.2287  -3.9618
    -3.9580  -3.9454  -3.7777  -3.7738   4.6582   7.3041   7.3215   8.0886
     9.0885   9.1389   9.8286   9.8742  10.0234  10.1715

          k = 0.1250 0.1250 0.3750 (  1095 PWs)   bands (ev):

   -44.6165 -21.3117 -21.2221 -21.2211  -5.8996  -5.1057  -5.1051  -4.0225
    -3.9569  -3.9415  -3.8722  -3.7476   3.9101   6.8348   7.2865   7.8546
     8.4885   8.7033   9.4209   9.9305  10.1575  10.9078

          k = 0.1250 0.3750 0.3750 (  1087 PWs)   bands (ev):

   -44.6152 -21.3082 -21.2779 -21.2195  -5.6845  -5.0139  -4.9314  -3.9959
    -3.9515  -3.8979  -3.8073  -3.6499   3.5504   6.7392   6.9248   7.1970
     7.5094   8.7087   9.4308   9.5124  10.0594  10.7149

          k = 0.3750 0.3750 0.3750 (  1082 PWs)   bands (ev):

   -44.6139 -21.3056 -21.2755 -21.2752  -5.3039  -5.1383  -5.1130  -3.9079
    -3.9033  -3.6170  -3.5529  -3.5410   4.1721   5.9351   5.9644   6.7101
     7.0809   7.1008   8.0002  10.6617  10.6978  10.7663

          k = 0.3750-0.1250 0.1250 (  1095 PWs)   bands (ev):

   -44.6165 -21.2815 -21.2513 -21.2216  -5.9245  -5.1353  -5.0636  -4.0207
    -3.9543  -3.9426  -3.8766  -3.7443   3.9239   6.8717   7.3634   7.8580
     8.4536   8.7847   9.3554   9.9383  10.0767  10.8684

          k = 0.3750-0.3750 0.1250 (  1087 PWs)   bands (ev):

   -44.6152 -21.2784 -21.2775 -21.2491  -5.7312  -4.9874  -4.9144  -3.9918
    -3.9501  -3.8933  -3.8056  -3.6666   3.5626   6.8329   6.8749   7.1872
     7.4927   8.6902   9.4868   9.5035  10.0412  10.7609

     highest occupied level (ev):    10.9078

!    total energy              =    -333.18295944 Ry
     estimated scf accuracy    <          5.6E-10 Ry

     The total energy is the sum of the following terms:
     one-electron contribution =     -76.59441720 Ry
     hartree contribution      =      66.29535994 Ry
     xc contribution           =     -49.65429170 Ry
     ewald contribution        =    -273.22961048 Ry

     convergence has been achieved in   9 iterations

     Forces acting on atoms (cartesian axes, Ry/au):

     atom    1 type  2   force =     0.00000000    0.00000000    0.01225132
     atom    2 type  3   force =     0.00000000    0.00000000   -0.01832551
     atom    3 type  1   force =     0.00000000    0.00000000    0.00325971
     atom    4 type  1   force =     0.00000000    0.00000000    0.00325971
     atom    5 type  1   force =     0.00000000    0.00000000   -0.00044523

     Total force =     0.004631     Total SCF correction =     0.000003


     Computing stress (Cartesian axis) and pressure

          total   stress  (Ry/bohr**3)                   (kbar)     P=      -10.74
  -0.00009654   0.00000000   0.00000000          -14.20        0.00        0.00
   0.00000000  -0.00009654   0.00000000            0.00      -14.20        0.00
   0.00000000   0.00000000  -0.00002600            0.00        0.00       -3.83

     Energy error            =      5.9E-05 Ry
     Gradient error          =      3.3E-03 Ry/Bohr

     number of scf cycles    =   4
     number of bfgs steps    =   3

     energy             old  =    -333.1829008313 Ry
     energy             new  =    -333.1829594387 Ry

     CASE: energy            _new < energy            _old

     new trust radius        =       0.0107869438 bohr
     new conv_thr            =       0.0000000010 Ry


ATOMIC_POSITIONS (angstrom)
Pb               0.0000000000        0.0000000000        0.0000000000    0   0   0
Ti               1.9375000000        1.9375000000        2.0440600000    0   0   0
O                0.0000000000        1.9375000000        1.9451067841
O                1.9375000000        0.0000000000        1.9451067841
O                1.9375000000        1.9375000000        0.0267239106


     Message from routine punch:
     Nothing written, as per user request (disk_io='none')
     NEW-OLD atomic charge density approx. for the potential

     total cpu time spent up to now is       24.3 secs

     Self-consistent Calculation

     iteration #  1     ecut=    30.00 Ry     beta= 0.70
     Davidson diagonalization with overlap
     ethr =  1.00E-06,  avg # of iterations =  4.3

     Threshold (ethr) on eigenvalues was too large:
     Diagonalizing with lowered threshold

     Davidson diagonalization with overlap
     ethr =  4.89E-08,  avg # of iterations =  4.3

     total cpu time spent up to now is       25.1 secs

     total energy              =    -333.18299156 Ry
     estimated scf accuracy    <       0.00002470 Ry

     iteration #  2     ecut=    30.00 Ry     beta= 0.70
     Davidson diagonalization with overlap
     ethr =  5.61E-08,  avg # of iterations =  4.5

     total cpu time spent up to now is       25.6 secs

     total energy              =    -333.18299150 Ry
     estimated scf accuracy    <       0.00001452 Ry

     iteration #  3     ecut=    30.00 Ry     beta= 0.70
     Davidson diagonalization with overlap
     ethr =  3.30E-08,  avg # of iterations =  4.5

     total cpu time spent up to now is       26.2 secs

     total energy              =    -333.18299548 Ry
     estimated scf accuracy    <       0.00000718 Ry

     iteration #  4     ecut=    30.00 Ry     beta= 0.70
     Davidson diagonalization with overlap
     ethr =  1.63E-08,  avg # of iterations =  3.0

     total cpu time spent up to now is       26.6 secs

     total energy              =    -333.18299611 Ry
     estimated scf accuracy    <       0.00000058 Ry

     iteration #  5     ecut=    30.00 Ry     beta= 0.70
     Davidson diagonalization with overlap
     ethr =  1.32E-09,  avg # of iterations =  5.3

     total cpu time spent up to now is       27.1 secs

     total energy              =    -333.18299659 Ry
     estimated scf accuracy    <       0.00000069 Ry

     iteration #  6     ecut=    30.00 Ry     beta= 0.70
     Davidson diagonalization with overlap
     ethr =  1.32E-09,  avg # of iterations =  1.2

     total cpu time spent up to now is       27.5 secs

     total energy              =    -333.18299649 Ry
     estimated scf accuracy    <       0.00000042 Ry

     iteration #  7     ecut=    30.00 Ry     beta= 0.70
     Davidson diagonalization with overlap
     ethr =  9.45E-10,  avg # of iterations =  3.2

     total cpu time spent up to now is       27.9 secs

     total energy              =    -333.18299655 Ry
     estimated scf accuracy    <       0.00000002 Ry

     iteration #  8     ecut=    30.00 Ry     beta= 0.70
     Davidson diagonalization with overlap
     ethr =  5.46E-11,  avg # of iterations =  4.8

     total cpu time spent up to now is       28.4 secs

     total energy              =    -333.18299656 Ry
     estimated scf accuracy    <          2.1E-09 Ry

     iteration #  9     ecut=    30.00 Ry     beta= 0.70
     Davidson diagonalization with overlap
     ethr =  4.83E-12,  avg # of iterations =  2.2

     total cpu time spent up to now is       29.0 secs

     End of self-consistent calculation

          k = 0.1250 0.1250 0.1250 (  1090 PWs)   bands (ev):

   -44.6231 -21.2550 -21.2299 -21.2289  -6.3270  -5.2622  -5.2314  -3.9607
    -3.9573  -3.9446  -3.7769  -3.7732   4.6591   7.3050   7.3202   8.0890
     9.0950   9.1412   9.8420   9.8770  10.0196  10.1687

          k = 0.1250 0.1250 0.3750 (  1095 PWs)   bands (ev):

   -44.6219 -21.3132 -21.2277 -21.2267  -5.9018  -5.1087  -5.1020  -4.0215
    -3.9558  -3.9408  -3.8717  -3.7466   3.9131   6.8356   7.2925   7.8536
     8.4860   8.7094   9.4194   9.9330  10.1542  10.9056

          k = 0.1250 0.3750 0.3750 (  1087 PWs)   bands (ev):

   -44.6206 -21.3097 -21.2835 -21.2251  -5.6866  -5.0117  -4.9321  -3.9949
    -3.9505  -3.8969  -3.8064  -3.6498   3.5518   6.7455   6.9188   7.1964
     7.5084   8.7064   9.4351   9.5106  10.0602  10.7176

          k = 0.3750 0.3750 0.3750 (  1082 PWs)   bands (ev):

   -44.6193 -21.3071 -21.2811 -21.2808  -5.3033  -5.1372  -5.1147  -3.9068
    -3.9026  -3.6159  -3.5519  -3.5410   4.1726   5.9376   5.9633   6.7109
     7.0775   7.0947   8.0012  10.6657  10.6987  10.7660

          k = 0.3750-0.1250 0.1250 (  1095 PWs)   bands (ev):

   -44.6219 -21.2871 -21.2528 -21.2272  -5.9240  -5.1349  -5.0655  -4.0199
    -3.9535  -3.9418  -3.8755  -3.7437   3.9248   6.8690   7.3625   7.8578
     8.4544   8.7824   9.3607   9.9403  10.0818  10.8700

          k = 0.3750-0.3750 0.1250 (  1087 PWs)   bands (ev):

   -44.6206 -21.2840 -21.2831 -21.2506  -5.7281  -4.9891  -4.9164  -3.9911
    -3.9493  -3.8927  -3.8049  -3.6649   3.5622   6.8313   6.8723   7.1890
     7.4945   8.6900   9.4857   9.5030  10.0428  10.7587

     highest occupied level (ev):    10.9056

!    total energy              =    -333.18299656 Ry
     estimated scf accuracy    <          9.8E-10 Ry

     The total energy is the sum of the following terms:
     one-electron contribution =     -76.57294654 Ry
     hartree contribution      =      66.28311980 Ry
     xc contribution           =     -49.65317261 Ry
     ewald contribution        =    -273.23999721 Ry

     convergence has been achieved in   9 iterations

     Forces acting on atoms (cartesian axes, Ry/au):

     atom    1 type  2   force =     0.00000000    0.00000000    0.01205645
     atom    2 type  3   force =     0.00000000    0.00000000   -0.01733748
     atom    3 type  1   force =     0.00000000    0.00000000    0.00375474
     atom    4 type  1   force =     0.00000000    0.00000000    0.00375474
     atom    5 type  1   force =     0.00000000    0.00000000   -0.00222846

     Total force =     0.005759     Total SCF correction =     0.000014


     Computing stress (Cartesian axis) and pressure

          total   stress  (Ry/bohr**3)                   (kbar)     P=      -11.50
  -0.00009790   0.00000000   0.00000000          -14.40        0.00        0.00
   0.00000000  -0.00009790   0.00000000            0.00      -14.40        0.00
   0.00000000   0.00000000  -0.00003875            0.00        0.00       -5.70

     Energy error            =      3.7E-05 Ry
     Gradient error          =      3.8E-03 Ry/Bohr

     number of scf cycles    =   5
     number of bfgs steps    =   4

     energy             old  =    -333.1829594387 Ry
     energy             new  =    -333.1829965623 Ry

     CASE: energy            _new < energy            _old

     new trust radius        =       0.0118656382 bohr
     new conv_thr            =       0.0000000010 Ry


ATOMIC_POSITIONS (angstrom)
Pb               0.0000000000        0.0000000000        0.0000000000    0   0   0
Ti               1.9375000000        1.9375000000        2.0440600000    0   0   0
O                0.0000000000        1.9375000000        1.9509257930
O                1.9375000000        0.0000000000        1.9509257930
O                1.9375000000        1.9375000000        0.0330029359


     Message from routine punch:
     Nothing written, as per user request (disk_io='none')
     NEW-OLD atomic charge density approx. for the potential

     total cpu time spent up to now is       30.6 secs

     Self-consistent Calculation

     iteration #  1     ecut=    30.00 Ry     beta= 0.70
     Davidson diagonalization with overlap
     ethr =  1.00E-06,  avg # of iterations =  5.2

     Threshold (ethr) on eigenvalues was too large:
     Diagonalizing with lowered threshold

     Davidson diagonalization with overlap
     ethr =  7.59E-08,  avg # of iterations =  2.8

     total cpu time spent up to now is       31.4 secs

     total energy              =    -333.18304216 Ry
     estimated scf accuracy    <       0.00003447 Ry

     iteration #  2     ecut=    30.00 Ry     beta= 0.70
     Davidson diagonalization with overlap
     ethr =  7.83E-08,  avg # of iterations =  3.5

     total cpu time spent up to now is       31.8 secs

     total energy              =    -333.18304462 Ry
     estimated scf accuracy    <       0.00000813 Ry

     iteration #  3     ecut=    30.00 Ry     beta= 0.70
     Davidson diagonalization with overlap
     ethr =  1.85E-08,  avg # of iterations =  5.2

     total cpu time spent up to now is       32.2 secs

     total energy              =    -333.18304636 Ry
     estimated scf accuracy    <       0.00000869 Ry

     iteration #  4     ecut=    30.00 Ry     beta= 0.70
     Davidson diagonalization with overlap
     ethr =  1.85E-08,  avg # of iterations =  3.7

     total cpu time spent up to now is       32.6 secs

     total energy              =    -333.18304776 Ry
     estimated scf accuracy    <       0.00000015 Ry

     iteration #  5     ecut=    30.00 Ry     beta= 0.70
     Davidson diagonalization with overlap
     ethr =  3.33E-10,  avg # of iterations =  6.5

     total cpu time spent up to now is       33.1 secs

     total energy              =    -333.18304797 Ry
     estimated scf accuracy    <       0.00000068 Ry

     iteration #  6     ecut=    30.00 Ry     beta= 0.70
     Davidson diagonalization with overlap
     ethr =  3.33E-10,  avg # of iterations =  4.7

     total cpu time spent up to now is       33.5 secs

     total energy              =    -333.18304798 Ry
     estimated scf accuracy    <       0.00000015 Ry

     iteration #  7     ecut=    30.00 Ry     beta= 0.70
     Davidson diagonalization with overlap
     ethr =  3.33E-10,  avg # of iterations =  3.0

     total cpu time spent up to now is       33.9 secs

     total energy              =    -333.18304797 Ry
     estimated scf accuracy    <       0.00000004 Ry

     iteration #  8     ecut=    30.00 Ry     beta= 0.70
     Davidson diagonalization with overlap
     ethr =  8.95E-11,  avg # of iterations =  5.2

     total cpu time spent up to now is       34.4 secs

     total energy              =    -333.18304799 Ry
     estimated scf accuracy    <       0.00000002 Ry

     iteration #  9     ecut=    30.00 Ry     beta= 0.70
     Davidson diagonalization with overlap
     ethr =  3.49E-11,  avg # of iterations =  1.5

     total cpu time spent up to now is       34.7 secs

     total energy              =    -333.18304799 Ry
     estimated scf accuracy    <          6.7E-09 Ry

     iteration # 10     ecut=    30.00 Ry     beta= 0.70
     Davidson diagonalization with overlap
     ethr =  1.51E-11,  avg # of iterations =  4.2

     total cpu time spent up to now is       35.2 secs

     End of self-consistent calculation

          k = 0.1250 0.1250 0.1250 (  1090 PWs)   bands (ev):

   -44.6290 -21.2570 -21.2360 -21.2350  -6.3274  -5.2608  -5.2346  -3.9596
    -3.9565  -3.9437  -3.7760  -3.7726   4.6601   7.3062   7.3189   8.0899
     9.1022   9.1433   9.8582   9.8808  10.0147  10.1640

          k = 0.1250 0.1250 0.3750 (  1095 PWs)   bands (ev):

   -44.6278 -21.3151 -21.2338 -21.2329  -5.9045  -5.1124  -5.0986  -4.0203
    -3.9546  -3.9400  -3.8710  -3.7455   3.9164   6.8367   7.3002   7.8533
     8.4819   8.7158   9.4170   9.9364  10.1501  10.9028

          k = 0.1250 0.3750 0.3750 (  1087 PWs)   bands (ev):

   -44.6265 -21.3116 -21.2896 -21.2312  -5.6892  -5.0095  -4.9329  -3.9938
    -3.9495  -3.8958  -3.8055  -3.6495   3.5533   6.7533   6.9109   7.1957
     7.5072   8.7036   9.4391   9.5085  10.0609  10.7207

          k = 0.3750 0.3750 0.3750 (  1082 PWs)   bands (ev):

   -44.6252 -21.3090 -21.2872 -21.2870  -5.3026  -5.1359  -5.1166  -3.9056
    -3.9019  -3.6147  -3.5507  -3.5408   4.1728   5.9402   5.9616   6.7123
     7.0725   7.0868   8.0022  10.6701  10.6994  10.7658

          k = 0.3750-0.1250 0.1250 (  1095 PWs)   bands (ev):

   -44.6278 -21.2933 -21.2548 -21.2333  -5.9233  -5.1348  -5.0677  -4.0190
    -3.9525  -3.9408  -3.8742  -3.7430   3.9257   6.8655   7.3611   7.8578
     8.4554   8.7789   9.3661   9.9426  10.0878  10.8715

          k = 0.3750-0.3750 0.1250 (  1087 PWs)   bands (ev):

   -44.6265 -21.2901 -21.2892 -21.2526  -5.7245  -4.9911  -4.9189  -3.9904
    -3.9483  -3.8919  -3.8040  -3.6630   3.5615   6.8293   6.8689   7.1901
     7.4954   8.6896   9.4837   9.5025  10.0449  10.7561

     highest occupied level (ev):    10.9028

!    total energy              =    -333.18304799 Ry
     estimated scf accuracy    <          2.1E-10 Ry

     The total energy is the sum of the following terms:
     one-electron contribution =     -76.56118828 Ry
     hartree contribution      =      66.27582399 Ry
     xc contribution           =     -49.65221616 Ry
     ewald contribution        =    -273.24546754 Ry

     convergence has been achieved in  10 iterations

     Forces acting on atoms (cartesian axes, Ry/au):

     atom    1 type  2   force =     0.00000000    0.00000000    0.01172148
     atom    2 type  3   force =     0.00000000    0.00000000   -0.01635274
     atom    3 type  1   force =     0.00000000    0.00000000    0.00406489
     atom    4 type  1   force =     0.00000000    0.00000000    0.00406489
     atom    5 type  1   force =     0.00000000    0.00000000   -0.00349853

     Total force =     0.006730     Total SCF correction =     0.000005


     Computing stress (Cartesian axis) and pressure

          total   stress  (Ry/bohr**3)                   (kbar)     P=      -11.97
  -0.00009724   0.00000000   0.00000000          -14.30        0.00        0.00
   0.00000000  -0.00009724   0.00000000            0.00      -14.30        0.00
   0.00000000   0.00000000  -0.00004965            0.00        0.00       -7.30

     Energy error            =      5.1E-05 Ry
     Gradient error          =      4.1E-03 Ry/Bohr

     number of scf cycles    =   6
     number of bfgs steps    =   5

     energy             old  =    -333.1829965623 Ry
     energy             new  =    -333.1830479935 Ry

     CASE: energy            _new < energy            _old

     new trust radius        =       0.0177984573 bohr
     new conv_thr            =       0.0000000010 Ry


ATOMIC_POSITIONS (angstrom)
Pb               0.0000000000        0.0000000000        0.0000000000    0   0   0
Ti               1.9375000000        1.9375000000        2.0440600000    0   0   0
O                0.0000000000        1.9375000000        1.9603443309
O                1.9375000000        0.0000000000        1.9603443309
O                1.9375000000        1.9375000000        0.0415836919


     Message from routine punch:
     Nothing written, as per user request (disk_io='none')
     NEW-OLD atomic charge density approx. for the potential

     total cpu time spent up to now is       36.7 secs

     Self-consistent Calculation

     iteration #  1     ecut=    30.00 Ry     beta= 0.70
     Davidson diagonalization with overlap
     ethr =  1.00E-06,  avg # of iterations =  5.5

     total cpu time spent up to now is       37.2 secs

     total energy              =    -333.18311964 Ry
     estimated scf accuracy    <       0.00007493 Ry

     iteration #  2     ecut=    30.00 Ry     beta= 0.70
     Davidson diagonalization with overlap
     ethr =  1.70E-07,  avg # of iterations =  3.7

     total cpu time spent up to now is       37.6 secs

     total energy              =    -333.18312827 Ry
     estimated scf accuracy    <       0.00001280 Ry

     iteration #  3     ecut=    30.00 Ry     beta= 0.70
     Davidson diagonalization with overlap
     ethr =  2.91E-08,  avg # of iterations =  5.2

     total cpu time spent up to now is       38.1 secs

     total energy              =    -333.18313054 Ry
     estimated scf accuracy    <       0.00001474 Ry

     iteration #  4     ecut=    30.00 Ry     beta= 0.70
     Davidson diagonalization with overlap
     ethr =  2.91E-08,  avg # of iterations =  4.3

     total cpu time spent up to now is       38.5 secs

     total energy              =    -333.18313345 Ry
     estimated scf accuracy    <       0.00000031 Ry

     iteration #  5     ecut=    30.00 Ry     beta= 0.70
     Davidson diagonalization with overlap
     ethr =  6.97E-10,  avg # of iterations =  6.3

     total cpu time spent up to now is       39.0 secs

     total energy              =    -333.18313360 Ry
     estimated scf accuracy    <       0.00000085 Ry

     iteration #  6     ecut=    30.00 Ry     beta= 0.70
     Davidson diagonalization with overlap
     ethr =  6.97E-10,  avg # of iterations =  4.3

     total cpu time spent up to now is       39.4 secs

     total energy              =    -333.18313367 Ry
     estimated scf accuracy    <       0.00000007 Ry

     iteration #  7     ecut=    30.00 Ry     beta= 0.70
     Davidson diagonalization with overlap
     ethr =  1.67E-10,  avg # of iterations =  4.7

     total cpu time spent up to now is       39.8 secs

     total energy              =    -333.18313369 Ry
     estimated scf accuracy    <          3.2E-09 Ry

     iteration #  8     ecut=    30.00 Ry     beta= 0.70
     Davidson diagonalization with overlap
     ethr =  7.24E-12,  avg # of iterations =  4.5

     total cpu time spent up to now is       40.3 secs

     total energy              =    -333.18313369 Ry
     estimated scf accuracy    <          3.6E-09 Ry

     iteration #  9     ecut=    30.00 Ry     beta= 0.70
     Davidson diagonalization with overlap
     ethr =  7.24E-12,  avg # of iterations =  4.0

     total cpu time spent up to now is       40.7 secs

     End of self-consistent calculation

          k = 0.1250 0.1250 0.1250 (  1090 PWs)   bands (ev):

   -44.6360 -21.2592 -21.2434 -21.2424  -6.3282  -5.2591  -5.2397  -3.9581
    -3.9554  -3.9425  -3.7748  -3.7716   4.6615   7.3078   7.3173   8.0915
     9.1115   9.1456   9.8812   9.8860  10.0073  10.1557

          k = 0.1250 0.1250 0.3750 (  1095 PWs)   bands (ev):

   -44.6348 -21.3173 -21.2413 -21.2403  -5.9084  -5.1181  -5.0942  -4.0187
    -3.9530  -3.9389  -3.8699  -3.7441   3.9209   6.8384   7.3109   7.8531
     8.4754   8.7239   9.4132   9.9410  10.1441  10.8986

          k = 0.1250 0.3750 0.3750 (  1087 PWs)   bands (ev):

   -44.6335 -21.3137 -21.2971 -21.2387  -5.6931  -5.0071  -4.9338  -3.9922
    -3.9481  -3.8943  -3.8041  -3.6491   3.5552   6.7645   6.8992   7.1945
     7.5054   8.6996   9.4432   9.5056  10.0617  10.7247

          k = 0.3750 0.3750 0.3750 (  1082 PWs)   bands (ev):

   -44.6322 -21.3112 -21.2947 -21.2945  -5.3019  -5.1342  -5.1196  -3.9040
    -3.9009  -3.6130  -3.5490  -3.5405   4.1725   5.9434   5.9588   6.7145
     7.0653   7.0754   8.0039  10.6757  10.6991  10.7658

          k = 0.3750-0.1250 0.1250 (  1095 PWs)   bands (ev):

   -44.6348 -21.3007 -21.2570 -21.2408  -5.9226  -5.1352  -5.0710  -4.0178
    -3.9513  -3.9396  -3.8722  -3.7419   3.9267   6.8604   7.3586   7.8578
     8.4567   8.7736   9.3727   9.9453  10.0957  10.8733

          k = 0.3750-0.3750 0.1250 (  1087 PWs)   bands (ev):

   -44.6335 -21.2976 -21.2967 -21.2549  -5.7196  -4.9943  -4.9229  -3.9895
    -3.9468  -3.8906  -3.8026  -3.6606   3.5601   6.8265   6.8639   7.1908
     7.4957   8.6891   9.4805   9.5015  10.0480  10.7520

     highest occupied level (ev):    10.8986

!    total energy              =    -333.18313369 Ry
     estimated scf accuracy    <          1.2E-11 Ry

     The total energy is the sum of the following terms:
     one-electron contribution =     -76.55732977 Ry
     hartree contribution      =      66.27202242 Ry
     xc contribution           =     -49.65125941 Ry
     ewald contribution        =    -273.24656693 Ry

     convergence has been achieved in   9 iterations

     Forces acting on atoms (cartesian axes, Ry/au):

     atom    1 type  2   force =     0.00000000    0.00000000    0.01112183
     atom    2 type  3   force =     0.00000000    0.00000000   -0.01519130
     atom    3 type  1   force =     0.00000000    0.00000000    0.00429813
     atom    4 type  1   force =     0.00000000    0.00000000    0.00429813
     atom    5 type  1   force =     0.00000000    0.00000000   -0.00452679

     Total force =     0.007579     Total SCF correction =     0.000004


     Computing stress (Cartesian axis) and pressure

          total   stress  (Ry/bohr**3)                   (kbar)     P=      -12.53
  -0.00009637   0.00000000   0.00000000          -14.18        0.00        0.00
   0.00000000  -0.00009637   0.00000000            0.00      -14.18        0.00
   0.00000000   0.00000000  -0.00006290            0.00        0.00       -9.25

     Energy error            =      8.6E-05 Ry
     Gradient error          =      4.5E-03 Ry/Bohr

     number of scf cycles    =   7
     number of bfgs steps    =   6

     energy             old  =    -333.1830479935 Ry
     energy             new  =    -333.1831336912 Ry

     CASE: energy            _new < energy            _old

     new trust radius        =       0.0266976859 bohr
     new conv_thr            =       0.0000000010 Ry


ATOMIC_POSITIONS (angstrom)
Pb               0.0000000000        0.0000000000        0.0000000000    0   0   0
Ti               1.9375000000        1.9375000000        2.0440600000    0   0   0
O                0.0000000000        1.9375000000        1.9744721379
O                1.9375000000        0.0000000000        1.9744721379
O                1.9375000000        1.9375000000        0.0533470776


     Message from routine punch:
     Nothing written, as per user request (disk_io='none')
     NEW-OLD atomic charge density approx. for the potential

     total cpu time spent up to now is       42.2 secs

     Self-consistent Calculation

     iteration #  1     ecut=    30.00 Ry     beta= 0.70
     Davidson diagonalization with overlap
     ethr =  1.00E-06,  avg # of iterations =  7.0

     total cpu time spent up to now is       42.7 secs

     total energy              =    -333.18323390 Ry
     estimated scf accuracy    <       0.00015531 Ry

     iteration #  2     ecut=    30.00 Ry     beta= 0.70
     Davidson diagonalization with overlap
     ethr =  3.53E-07,  avg # of iterations =  2.8

     total cpu time spent up to now is       43.1 secs

     total energy              =    -333.18325131 Ry
     estimated scf accuracy    <       0.00001955 Ry

     iteration #  3     ecut=    30.00 Ry     beta= 0.70
     Davidson diagonalization with overlap
     ethr =  4.44E-08,  avg # of iterations =  4.8

     total cpu time spent up to now is       43.6 secs

     total energy              =    -333.18325386 Ry
     estimated scf accuracy    <       0.00002188 Ry

     iteration #  4     ecut=    30.00 Ry     beta= 0.70
     Davidson diagonalization with overlap
     ethr =  4.44E-08,  avg # of iterations =  4.2

     total cpu time spent up to now is       44.0 secs

     total energy              =    -333.18325879 Ry
     estimated scf accuracy    <       0.00000090 Ry

     iteration #  5     ecut=    30.00 Ry     beta= 0.70
     Davidson diagonalization with overlap
     ethr =  2.04E-09,  avg # of iterations =  5.0

     total cpu time spent up to now is       44.5 secs

     total energy              =    -333.18325894 Ry
     estimated scf accuracy    <       0.00000080 Ry

     iteration #  6     ecut=    30.00 Ry     beta= 0.70
     Davidson diagonalization with overlap
     ethr =  1.82E-09,  avg # of iterations =  4.0

     total cpu time spent up to now is       44.9 secs

     total energy              =    -333.18325903 Ry
     estimated scf accuracy    <       0.00000005 Ry

     iteration #  7     ecut=    30.00 Ry     beta= 0.70
     Davidson diagonalization with overlap
     ethr =  1.15E-10,  avg # of iterations =  5.5

     total cpu time spent up to now is       45.3 secs

     total energy              =    -333.18325907 Ry
     estimated scf accuracy    <       0.00000004 Ry

     iteration #  8     ecut=    30.00 Ry     beta= 0.70
     Davidson diagonalization with overlap
     ethr =  9.33E-11,  avg # of iterations =  1.7

     total cpu time spent up to now is       45.7 secs

     total energy              =    -333.18325906 Ry
     estimated scf accuracy    <       0.00000002 Ry

     iteration #  9     ecut=    30.00 Ry     beta= 0.70
     Davidson diagonalization with overlap
     ethr =  3.95E-11,  avg # of iterations =  4.3

     total cpu time spent up to now is       46.2 secs

     total energy              =    -333.18325907 Ry
     estimated scf accuracy    <          2.1E-09 Ry

     iteration # 10     ecut=    30.00 Ry     beta= 0.70
     Davidson diagonalization with overlap
     ethr =  4.71E-12,  avg # of iterations =  2.0

     total cpu time spent up to now is       46.6 secs

     total energy              =    -333.18325907 Ry
     estimated scf accuracy    <          1.2E-09 Ry

     iteration # 11     ecut=    30.00 Ry     beta= 0.70
     Davidson diagonalization with overlap
     ethr =  2.74E-12,  avg # of iterations =  3.8

     total cpu time spent up to now is       47.0 secs

     End of self-consistent calculation

          k = 0.1250 0.1250 0.1250 (  1090 PWs)   bands (ev):

   -44.6446 -21.2622 -21.2526 -21.2516  -6.3297  -5.2570  -5.2470  -3.9558
    -3.9537  -3.9406  -3.7731  -3.7695   4.6632   7.3094   7.3155   8.0937
     9.1227   9.1476   9.8926   9.9119   9.9970  10.1426

          k = 0.1250 0.1250 0.3750 (  1095 PWs)   bands (ev):

   -44.6434 -21.3201 -21.2505 -21.2495  -5.9142  -5.1264  -5.0883  -4.0161
    -3.9506  -3.9371  -3.8678  -3.7420   3.9267   6.8409   7.3244   7.8526
     8.4665   8.7339   9.4073   9.9467  10.1353  10.8931

          k = 0.1250 0.3750 0.3750 (  1087 PWs)   bands (ev):

   -44.6421 -21.3166 -21.3063 -21.2479  -5.6988  -5.0053  -4.9348  -3.9899
    -3.9460  -3.8920  -3.8018  -3.6478   3.5579   6.7795   6.8826   7.1925
     7.5030   8.6938   9.4465   9.5025  10.0627  10.7295

          k = 0.3750 0.3750 0.3750 (  1082 PWs)   bands (ev):

   -44.6409 -21.3140 -21.3039 -21.3037  -5.3017  -5.1319  -5.1241  -3.9016
    -3.8992  -3.6108  -3.5463  -3.5395   4.1714   5.9474   5.9547   6.7170
     7.0556   7.0604   8.0072  10.6823  10.6971  10.7661

          k = 0.3750-0.1250 0.1250 (  1095 PWs)   bands (ev):

   -44.6434 -21.3100 -21.2600 -21.2500  -5.9222  -5.1363  -5.0760  -4.0160
    -3.9493  -3.9375  -3.8689  -3.7399   3.9280   6.8534   7.3547   7.8578
     8.4579   8.7664   9.3804   9.9480  10.1051  10.8758

          k = 0.3750-0.3750 0.1250 (  1087 PWs)   bands (ev):

   -44.6421 -21.3068 -21.3059 -21.2578  -5.7132  -4.9995  -4.9290  -3.9880
    -3.9444  -3.8880  -3.7999  -3.6571   3.5577   6.8224   6.8570   7.1910
     7.4958   8.6885   9.4759   9.5002  10.0525  10.7460

     highest occupied level (ev):    10.8931

!    total energy              =    -333.18325907 Ry
     estimated scf accuracy    <          1.1E-10 Ry

     The total energy is the sum of the following terms:
     one-electron contribution =     -76.56704818 Ry
     hartree contribution      =      66.27461156 Ry
     xc contribution           =     -49.65039295 Ry
     ewald contribution        =    -273.24042950 Ry

     convergence has been achieved in  11 iterations

     Forces acting on atoms (cartesian axes, Ry/au):

     atom    1 type  2   force =     0.00000000    0.00000000    0.01022846
     atom    2 type  3   force =     0.00000000    0.00000000   -0.01395609
     atom    3 type  1   force =     0.00000000    0.00000000    0.00446533
     atom    4 type  1   force =     0.00000000    0.00000000    0.00446533
     atom    5 type  1   force =     0.00000000    0.00000000   -0.00520304

     Total force =     0.008182     Total SCF correction =     0.000002


     Computing stress (Cartesian axis) and pressure

          total   stress  (Ry/bohr**3)                   (kbar)     P=      -13.01
  -0.00009422   0.00000000   0.00000000          -13.86        0.00        0.00
   0.00000000  -0.00009422   0.00000000            0.00      -13.86        0.00
   0.00000000   0.00000000  -0.00007693            0.00        0.00      -11.32

     Energy error            =      1.3E-04 Ry
     Gradient error          =      5.2E-03 Ry/Bohr

     number of scf cycles    =   8
     number of bfgs steps    =   7

     energy             old  =    -333.1831336912 Ry
     energy             new  =    -333.1832590695 Ry

     CASE: energy            _new < energy            _old

     new trust radius        =       0.0400465288 bohr
     new conv_thr            =       0.0000000013 Ry


ATOMIC_POSITIONS (angstrom)
Pb               0.0000000000        0.0000000000        0.0000000000    0   0   0
Ti               1.9375000000        1.9375000000        2.0440600000    0   0   0
O                0.0000000000        1.9375000000        1.9956638483
O                1.9375000000        0.0000000000        1.9956638483
O                1.9375000000        1.9375000000        0.0703188454


     Message from routine punch:
     Nothing written, as per user request (disk_io='none')
     NEW-OLD atomic charge density approx. for the potential

     total cpu time spent up to now is       48.6 secs

     Self-consistent Calculation

     iteration #  1     ecut=    30.00 Ry     beta= 0.70
     Davidson diagonalization with overlap
     ethr =  1.00E-06,  avg # of iterations =  8.2

     total cpu time spent up to now is       49.2 secs

     total energy              =    -333.18340047 Ry
     estimated scf accuracy    <       0.00033501 Ry

     iteration #  2     ecut=    30.00 Ry     beta= 0.70
     Davidson diagonalization with overlap
     ethr =  7.61E-07,  avg # of iterations =  2.3

     total cpu time spent up to now is       49.6 secs

     total energy              =    -333.18344304 Ry
     estimated scf accuracy    <       0.00002570 Ry

     iteration #  3     ecut=    30.00 Ry     beta= 0.70
     Davidson diagonalization with overlap
     ethr =  5.84E-08,  avg # of iterations =  4.3

     total cpu time spent up to now is       50.0 secs

     total energy              =    -333.18344672 Ry
     estimated scf accuracy    <       0.00001522 Ry

     iteration #  4     ecut=    30.00 Ry     beta= 0.70
     Davidson diagonalization with overlap
     ethr =  3.46E-08,  avg # of iterations =  4.5

     total cpu time spent up to now is       50.5 secs

     total energy              =    -333.18345058 Ry
     estimated scf accuracy    <       0.00000382 Ry

     iteration #  5     ecut=    30.00 Ry     beta= 0.70
     Davidson diagonalization with overlap
     ethr =  8.67E-09,  avg # of iterations =  3.8

     total cpu time spent up to now is       50.9 secs

     total energy              =    -333.18345122 Ry
     estimated scf accuracy    <       0.00000013 Ry

     iteration #  6     ecut=    30.00 Ry     beta= 0.70
     Davidson diagonalization with overlap
     ethr =  2.93E-10,  avg # of iterations =  5.8

     total cpu time spent up to now is       51.3 secs

     total energy              =    -333.18345131 Ry
     estimated scf accuracy    <       0.00000029 Ry

     iteration #  7     ecut=    30.00 Ry     beta= 0.70
     Davidson diagonalization with overlap
     ethr =  2.93E-10,  avg # of iterations =  4.2

     total cpu time spent up to now is       51.7 secs

     total energy              =    -333.18345132 Ry
     estimated scf accuracy    <       0.00000004 Ry

     iteration #  8     ecut=    30.00 Ry     beta= 0.70
     Davidson diagonalization with overlap
     ethr =  8.87E-11,  avg # of iterations =  4.7

     total cpu time spent up to now is       52.2 secs

     total energy              =    -333.18345133 Ry
     estimated scf accuracy    <          3.2E-09 Ry

     iteration #  9     ecut=    30.00 Ry     beta= 0.70
     Davidson diagonalization with overlap
     ethr =  7.34E-12,  avg # of iterations =  3.3

     total cpu time spent up to now is       52.6 secs

     End of self-consistent calculation

          k = 0.1250 0.1250 0.1250 (  1090 PWs)   bands (ev):

   -44.6550 -21.2663 -21.2635 -21.2627  -6.3328  -5.2579  -5.2543  -3.9521
    -3.9507  -3.9372  -3.7702  -3.7651   4.6656   7.3100   7.3133   8.0965
     9.1353   9.1484   9.8996   9.9507   9.9831  10.1235

          k = 0.1250 0.1250 0.3750 (  1095 PWs)   bands (ev):

   -44.6538 -21.3239 -21.2615 -21.2606  -5.9233  -5.1389  -5.0806  -4.0116
    -3.9467  -3.9338  -3.8633  -3.7387   3.9343   6.8443   7.3391   7.8501
     8.4557   8.7456   9.3985   9.9527  10.1228  10.8868

          k = 0.1250 0.3750 0.3750 (  1087 PWs)   bands (ev):

   -44.6525 -21.3204 -21.3174 -21.2589  -5.7075  -5.0058  -4.9354  -3.9860
    -3.9424  -3.8880  -3.7978  -3.6446   3.5617   6.7989   6.8593   7.1888
     7.4996   8.6854   9.4465   9.5003  10.0647  10.7347

          k = 0.3750 0.3750 0.3750 (  1082 PWs)   bands (ev):

   -44.6512 -21.3179 -21.3150 -21.3148  -5.3031  -5.1316  -5.1288  -3.8976
    -3.8961  -3.6075  -3.5417  -3.5367   4.1687   5.9486   5.9523   6.7188
     7.0419   7.0440   8.0142  10.6895  10.6915  10.7671

          k = 0.3750-0.1250 0.1250 (  1095 PWs)   bands (ev):

   -44.6538 -21.3211 -21.2640 -21.2609  -5.9228  -5.1390  -5.0838  -4.0128
    -3.9459  -3.9339  -3.8628  -3.7361   3.9296   6.8439   7.3489   7.8574
     8.4582   8.7572   9.3887   9.9500  10.1150  10.8796

          k = 0.3750-0.3750 0.1250 (  1087 PWs)   bands (ev):

   -44.6525 -21.3180 -21.3170 -21.2617  -5.7054  -5.0081  -4.9395  -3.9851
    -3.9399  -3.8827  -3.7946  -3.6520   3.5536   6.8162   6.8477   7.1906
     7.4962   8.6883   9.4697   9.4981  10.0592  10.7367

     highest occupied level (ev):    10.8868

!    total energy              =    -333.18345133 Ry
     estimated scf accuracy    <          3.3E-10 Ry

     The total energy is the sum of the following terms:
     one-electron contribution =     -76.60249586 Ry
     hartree contribution      =      66.28961586 Ry
     xc contribution           =     -49.64988908 Ry
     ewald contribution        =    -273.22068224 Ry

     convergence has been achieved in   9 iterations

     Forces acting on atoms (cartesian axes, Ry/au):

     atom    1 type  2   force =     0.00000000    0.00000000    0.00893449
     atom    2 type  3   force =     0.00000000    0.00000000   -0.01278947
     atom    3 type  1   force =     0.00000000    0.00000000    0.00462369
     atom    4 type  1   force =     0.00000000    0.00000000    0.00462369
     atom    5 type  1   force =     0.00000000    0.00000000   -0.00539241

     Total force =     0.008476     Total SCF correction =     0.000005


     Computing stress (Cartesian axis) and pressure

          total   stress  (Ry/bohr**3)                   (kbar)     P=      -13.30
  -0.00009051   0.00000000   0.00000000          -13.32        0.00        0.00
   0.00000000  -0.00009051   0.00000000            0.00      -13.32        0.00
   0.00000000   0.00000000  -0.00009026            0.00        0.00      -13.28

     Energy error            =      1.9E-04 Ry
     Gradient error          =      5.4E-03 Ry/Bohr

     number of scf cycles    =   9
     number of bfgs steps    =   8

     energy             old  =    -333.1832590695 Ry
     energy             new  =    -333.1834513320 Ry

     CASE: energy            _new < energy            _old


     WARNING: bfgs curvature condition failed, Theta= 0.529
     uphill step: resetting bfgs history

     new trust radius        =       0.0053924080 bohr
     new conv_thr            =       0.0000000019 Ry


ATOMIC_POSITIONS (angstrom)
Pb               0.0000000000        0.0000000000        0.0000000000    0   0   0
Ti               1.9375000000        1.9375000000        2.0440600000    0   0   0
O                0.0000000000        1.9375000000        1.9981105998
O                1.9375000000        0.0000000000        1.9981105998
O                1.9375000000        1.9375000000        0.0674653060


     Message from routine punch:
     Nothing written, as per user request (disk_io='none')
     NEW-OLD atomic charge density approx. for the potential

     total cpu time spent up to now is       54.1 secs

     Self-consistent Calculation

     iteration #  1     ecut=    30.00 Ry     beta= 0.70
     Davidson diagonalization with overlap
     ethr =  1.00E-06,  avg # of iterations =  3.0

     Threshold (ethr) on eigenvalues was too large:
     Diagonalizing with lowered threshold

     Davidson diagonalization with overlap
     ethr =  1.51E-08,  avg # of iterations =  4.5

     total cpu time spent up to now is       54.8 secs

     total energy              =    -333.18351042 Ry
     estimated scf accuracy    <       0.00000951 Ry

     iteration #  2     ecut=    30.00 Ry     beta= 0.70
     Davidson diagonalization with overlap
     ethr =  2.16E-08,  avg # of iterations =  2.2

     total cpu time spent up to now is       55.2 secs

     total energy              =    -333.18351284 Ry
     estimated scf accuracy    <       0.00000108 Ry

     iteration #  3     ecut=    30.00 Ry     beta= 0.70
     Davidson diagonalization with overlap
     ethr =  2.45E-09,  avg # of iterations =  2.0

     total cpu time spent up to now is       55.6 secs

     total energy              =    -333.18351305 Ry
     estimated scf accuracy    <       0.00000003 Ry

     iteration #  4     ecut=    30.00 Ry     beta= 0.70
     Davidson diagonalization with overlap
     ethr =  6.04E-11,  avg # of iterations =  5.5

     total cpu time spent up to now is       56.1 secs

     total energy              =    -333.18351306 Ry
     estimated scf accuracy    <       0.00000002 Ry

     iteration #  5     ecut=    30.00 Ry     beta= 0.70
     Davidson diagonalization with overlap
     ethr =  4.73E-11,  avg # of iterations =  4.3

     total cpu time spent up to now is       56.6 secs

     total energy              =    -333.18351307 Ry
     estimated scf accuracy    <          4.4E-09 Ry

     iteration #  6     ecut=    30.00 Ry     beta= 0.70
     Davidson diagonalization with overlap
     ethr =  9.98E-12,  avg # of iterations =  3.8

     total cpu time spent up to now is       57.0 secs

     End of self-consistent calculation

          k = 0.1250 0.1250 0.1250 (  1090 PWs)   bands (ev):

   -44.6536 -21.2657 -21.2623 -21.2614  -6.3331  -5.2584  -5.2549  -3.9521
    -3.9507  -3.9371  -3.7703  -3.7648   4.6658   7.3097   7.3141   8.0963
     9.1345   9.1476   9.8996   9.9497   9.9824  10.1225

          k = 0.1250 0.1250 0.3750 (  1095 PWs)   bands (ev):

   -44.6524 -21.3234 -21.2602 -21.2593  -5.9237  -5.1396  -5.0812  -4.0115
    -3.9466  -3.9337  -3.8629  -3.7386   3.9344   6.8444   7.3390   7.8508
     8.4547   8.7441   9.3977   9.9527  10.1222  10.8865

          k = 0.1250 0.3750 0.3750 (  1087 PWs)   bands (ev):

   -44.6511 -21.3199 -21.3162 -21.2576  -5.7079  -5.0064  -4.9359  -3.9859
    -3.9424  -3.8878  -3.7976  -3.6443   3.5615   6.7988   6.8590   7.1882
     7.4996   8.6851   9.4468   9.4982  10.0644  10.7340

          k = 0.3750 0.3750 0.3750 (  1082 PWs)   bands (ev):

   -44.6499 -21.3174 -21.3138 -21.3136  -5.3034  -5.1319  -5.1294  -3.8975
    -3.8960  -3.6073  -3.5416  -3.5363   4.1678   5.9482   5.9516   6.7191
     7.0411   7.0431   8.0145  10.6887  10.6909  10.7665

          k = 0.3750-0.1250 0.1250 (  1095 PWs)   bands (ev):

   -44.6524 -21.3198 -21.2634 -21.2597  -5.9231  -5.1398  -5.0841  -4.0128
    -3.9458  -3.9337  -3.8625  -3.7358   3.9293   6.8438   7.3483   7.8574
     8.4584   8.7567   9.3873   9.9492  10.1144  10.8788

          k = 0.3750-0.3750 0.1250 (  1087 PWs)   bands (ev):

   -44.6511 -21.3167 -21.3158 -21.2612  -5.7059  -5.0087  -4.9400  -3.9850
    -3.9397  -3.8822  -3.7941  -3.6520   3.5530   6.8162   6.8472   7.1890
     7.4942   8.6882   9.4692   9.4984  10.0593  10.7363

     highest occupied level (ev):    10.8865

!    total energy              =    -333.18351307 Ry
     estimated scf accuracy    <          3.4E-10 Ry

     The total energy is the sum of the following terms:
     one-electron contribution =     -76.62723037 Ry
     hartree contribution      =      66.30222177 Ry
     xc contribution           =     -49.65048647 Ry
     ewald contribution        =    -273.20801800 Ry

     convergence has been achieved in   6 iterations

     Forces acting on atoms (cartesian axes, Ry/au):

     atom    1 type  2   force =     0.00000000    0.00000000    0.00861228
     atom    2 type  3   force =     0.00000000    0.00000000   -0.01294316
     atom    3 type  1   force =     0.00000000    0.00000000    0.00373985
     atom    4 type  1   force =     0.00000000    0.00000000    0.00373985
     atom    5 type  1   force =     0.00000000    0.00000000   -0.00314883

     Total force =     0.006155     Total SCF correction =     0.000037


     Computing stress (Cartesian axis) and pressure

          total   stress  (Ry/bohr**3)                   (kbar)     P=      -13.03
  -0.00008960   0.00000000   0.00000000          -13.18        0.00        0.00
   0.00000000  -0.00008960   0.00000000            0.00      -13.18        0.00
   0.00000000   0.00000000  -0.00008653            0.00        0.00      -12.73

     Energy error            =      6.2E-05 Ry
     Gradient error          =      3.7E-03 Ry/Bohr

     number of scf cycles    =  10
     number of bfgs steps    =   9

     energy             old  =    -333.1834513320 Ry
     energy             new  =    -333.1835130678 Ry

     CASE: energy            _new < energy            _old

     new trust radius        =       0.0059316488 bohr
     new conv_thr            =       0.0000000010 Ry


ATOMIC_POSITIONS (angstrom)
Pb               0.0000000000        0.0000000000        0.0000000000    0   0   0
Ti               1.9375000000        1.9375000000        2.0440600000    0   0   0
O                0.0000000000        1.9375000000        2.0012494931
O                1.9375000000        0.0000000000        2.0012494931
O                1.9375000000        1.9375000000        0.0647708709


     Message from routine punch:
     Nothing written, as per user request (disk_io='none')
     NEW-OLD atomic charge density approx. for the potential

     total cpu time spent up to now is       58.5 secs

     Self-consistent Calculation

     iteration #  1     ecut=    30.00 Ry     beta= 0.70
     Davidson diagonalization with overlap
     ethr =  1.00E-06,  avg # of iterations =  3.0

     Threshold (ethr) on eigenvalues was too large:
     Diagonalizing with lowered threshold

     Davidson diagonalization with overlap
     ethr =  1.90E-08,  avg # of iterations =  4.5

     total cpu time spent up to now is       59.3 secs

     total energy              =    -333.18355759 Ry
     estimated scf accuracy    <       0.00001165 Ry

     iteration #  2     ecut=    30.00 Ry     beta= 0.70
     Davidson diagonalization with overlap
     ethr =  2.65E-08,  avg # of iterations =  2.2

     total cpu time spent up to now is       59.7 secs

     total energy              =    -333.18356060 Ry
     estimated scf accuracy    <       0.00000136 Ry

     iteration #  3     ecut=    30.00 Ry     beta= 0.70
     Davidson diagonalization with overlap
     ethr =  3.09E-09,  avg # of iterations =  2.0

     total cpu time spent up to now is       60.1 secs

     total energy              =    -333.18356086 Ry
     estimated scf accuracy    <       0.00000003 Ry

     iteration #  4     ecut=    30.00 Ry     beta= 0.70
     Davidson diagonalization with overlap
     ethr =  6.81E-11,  avg # of iterations =  5.2

     total cpu time spent up to now is       60.7 secs

     total energy              =    -333.18356088 Ry
     estimated scf accuracy    <       0.00000003 Ry

     iteration #  5     ecut=    30.00 Ry     beta= 0.70
     Davidson diagonalization with overlap
     ethr =  6.02E-11,  avg # of iterations =  4.2

     total cpu time spent up to now is       61.1 secs

     total energy              =    -333.18356089 Ry
     estimated scf accuracy    <          5.0E-09 Ry

     iteration #  6     ecut=    30.00 Ry     beta= 0.70
     Davidson diagonalization with overlap
     ethr =  1.13E-11,  avg # of iterations =  3.5

     total cpu time spent up to now is       61.5 secs

     End of self-consistent calculation

          k = 0.1250 0.1250 0.1250 (  1090 PWs)   bands (ev):

   -44.6524 -21.2653 -21.2612 -21.2603  -6.3335  -5.2593  -5.2556  -3.9519
    -3.9505  -3.9369  -3.7702  -3.7642   4.6659   7.3092   7.3149   8.0961
     9.1339   9.1466   9.8996   9.9493   9.9814  10.1210

          k = 0.1250 0.1250 0.3750 (  1095 PWs)   bands (ev):

   -44.6512 -21.3230 -21.2591 -21.2581  -5.9244  -5.1406  -5.0817  -4.0112
    -3.9464  -3.9335  -3.8623  -3.7384   3.9346   6.8446   7.3389   7.8513
     8.4537   8.7428   9.3967   9.9528  10.1213  10.8861

          k = 0.1250 0.3750 0.3750 (  1087 PWs)   bands (ev):

   -44.6499 -21.3195 -21.3151 -21.2565  -5.7085  -5.0071  -4.9364  -3.9857
    -3.9422  -3.8875  -3.7973  -3.6439   3.5613   6.7991   6.8583   7.1874
     7.4994   8.6846   9.4470   9.4960  10.0642  10.7334

          k = 0.3750 0.3750 0.3750 (  1082 PWs)   bands (ev):

   -44.6486 -21.3170 -21.3127 -21.3125  -5.3037  -5.1325  -5.1299  -3.8974
    -3.8958  -3.6070  -3.5414  -3.5358   4.1668   5.9476   5.9508   6.7196
     7.0401   7.0419   8.0151  10.6880  10.6900  10.7660

          k = 0.3750-0.1250 0.1250 (  1095 PWs)   bands (ev):

   -44.6512 -21.3187 -21.2630 -21.2586  -5.9235  -5.1407  -5.0847  -4.0126
    -3.9456  -3.9334  -3.8621  -3.7354   3.9289   6.8434   7.3475   7.8574
     8.4585   8.7559   9.3860   9.9484  10.1139  10.8780

          k = 0.3750-0.3750 0.1250 (  1087 PWs)   bands (ev):

   -44.6499 -21.3156 -21.3147 -21.2608  -5.7063  -5.0095  -4.9409  -3.9849
    -3.9393  -3.8815  -3.7934  -3.6518   3.5522   6.8160   6.8465   7.1874
     7.4922   8.6881   9.4686   9.4989  10.0598  10.7356

     highest occupied level (ev):    10.8861

!    total energy              =    -333.18356089 Ry
     estimated scf accuracy    <          5.8E-10 Ry

     The total energy is the sum of the following terms:
     one-electron contribution =     -76.65636089 Ry
     hartree contribution      =      66.31708849 Ry
[...]

     iteration #  6     ecut=    30.00 Ry     beta= 0.70
     Davidson diagonalization with overlap
     ethr =  1.65E-11,  avg # of iterations =  3.2

     total cpu time spent up to now is      161.4 secs

     End of self-consistent calculation

          k = 0.1250 0.1250 0.1250 (  1090 PWs)   bands (ev):

   -44.6409 -21.2821 -21.2502 -21.2493  -6.4137  -5.3618  -5.2548  -3.8895
    -3.8882  -3.8655  -3.7200  -3.6384   4.6836   7.2143   7.3042   8.0787
     9.0499   9.0762   9.6752   9.7846   9.9443  10.2435

          k = 0.1250 0.1250 0.3750 (  1095 PWs)   bands (ev):

   -44.6397 -21.3401 -21.2481 -21.2471  -6.0342  -5.2622  -5.0593  -3.9338
    -3.8756  -3.8638  -3.7324  -3.6842   3.9578   6.8442   7.1591   7.7310
     8.5264   8.6693   9.3413   9.8539  10.0308  10.9422

          k = 0.1250 0.3750 0.3750 (  1087 PWs)   bands (ev):

   -44.6384 -21.3364 -21.3036 -21.2455  -5.8030  -5.1301  -4.9571  -3.9155
    -3.8721  -3.8158  -3.7113  -3.5308   3.6058   6.6057   6.9319   7.1417
     7.4418   8.6361   9.3806   9.4356  10.1400  10.6706

          k = 0.3750 0.3750 0.3750 (  1082 PWs)   bands (ev):

   -44.6371 -21.3339 -21.3012 -21.3010  -5.3935  -5.2462  -5.1341  -3.8276
    -3.8245  -3.5638  -3.4627  -3.4380   4.0823   5.8959   5.9474   6.6327
     7.0945   7.0999   8.2048  10.5875  10.6186  10.7038

          k = 0.3750-0.1250 0.1250 (  1095 PWs)   bands (ev):

   -44.6397 -21.3074 -21.2797 -21.2476  -5.9954  -5.2302  -5.1725  -3.9459
    -3.8793  -3.8606  -3.7393  -3.6356   3.9376   6.8052   7.3039   7.8229
     8.3712   8.7758   9.3112   9.8567   9.9777  10.9189

          k = 0.3750-0.3750 0.1250 (  1087 PWs)   bands (ev):

   -44.6384 -21.3043 -21.3033 -21.2773  -5.7194  -5.1444  -5.1041  -3.9157
    -3.8523  -3.7554  -3.6564  -3.5911   3.4801   6.7529   6.8275   7.1861
     7.5408   8.7123   9.4647   9.4724  10.1178  10.6259

     highest occupied level (ev):    10.9422

!    total energy              =    -333.18590748 Ry
     estimated scf accuracy    <          7.5E-10 Ry

     The total energy is the sum of the following terms:
     one-electron contribution =     -77.84099765 Ry
     hartree contribution      =      66.91557554 Ry
     xc contribution           =     -49.67937099 Ry
     ewald contribution        =    -272.58111439 Ry

     convergence has been achieved in   6 iterations

     Forces acting on atoms (cartesian axes, Ry/au):

     atom    1 type  2   force =     0.00000000    0.00000000    0.00084114
     atom    2 type  3   force =     0.00000000    0.00000000   -0.00383459
     atom    3 type  1   force =     0.00000000    0.00000000    0.00129097
     atom    4 type  1   force =     0.00000000    0.00000000    0.00129097
     atom    5 type  1   force =     0.00000000    0.00000000    0.00041152

     Total force =     0.001872     Total SCF correction =     0.000020


     Computing stress (Cartesian axis) and pressure

          total   stress  (Ry/bohr**3)                   (kbar)     P=        1.42
  -0.00004166   0.00000000   0.00000000           -6.13        0.00        0.00
   0.00000000  -0.00004166   0.00000000            0.00       -6.13        0.00
   0.00000000   0.00000000   0.00011230            0.00        0.00       16.52

     Energy error            =      1.9E-05 Ry
     Gradient error          =      1.3E-03 Ry/Bohr

     number of scf cycles    =  30
     number of bfgs steps    =  28

     energy             old  =    -333.1858886891 Ry
     energy             new  =    -333.1859074778 Ry

     CASE: energy            _new < energy            _old

     new trust radius        =       0.0092480246 bohr
     new conv_thr            =       0.0000000010 Ry


ATOMIC_POSITIONS (angstrom)
Pb               0.0000000000        0.0000000000        0.0000000000    0   0   0
Ti               1.9375000000        1.9375000000        2.0440600000    0   0   0
O                0.0000000000        1.9375000000        2.2018429339
O                1.9375000000        0.0000000000        2.2018429339
O                1.9375000000        1.9375000000        0.2202706336


     Message from routine punch:
     Nothing written, as per user request (disk_io='none')
     NEW-OLD atomic charge density approx. for the potential

     total cpu time spent up to now is      163.0 secs

     Self-consistent Calculation

     iteration #  1     ecut=    30.00 Ry     beta= 0.70
     Davidson diagonalization with overlap
     ethr =  1.00E-06,  avg # of iterations =  4.0

     Threshold (ethr) on eigenvalues was too large:
     Diagonalizing with lowered threshold

     Davidson diagonalization with overlap
     ethr =  3.10E-08,  avg # of iterations =  5.2

     total cpu time spent up to now is      163.8 secs

     total energy              =    -333.18592996 Ry
     estimated scf accuracy    <       0.00001636 Ry

     iteration #  2     ecut=    30.00 Ry     beta= 0.70
     Davidson diagonalization with overlap
     ethr =  3.72E-08,  avg # of iterations =  2.2

     total cpu time spent up to now is      164.1 secs

     total energy              =    -333.18593225 Ry
     estimated scf accuracy    <       0.00000111 Ry

     iteration #  3     ecut=    30.00 Ry     beta= 0.70
     Davidson diagonalization with overlap
     ethr =  2.51E-09,  avg # of iterations =  3.5

     total cpu time spent up to now is      164.6 secs

     total energy              =    -333.18593247 Ry
     estimated scf accuracy    <       0.00000033 Ry

     iteration #  4     ecut=    30.00 Ry     beta= 0.70
     Davidson diagonalization with overlap
     ethr =  7.56E-10,  avg # of iterations =  4.8

     total cpu time spent up to now is      165.0 secs

     total energy              =    -333.18593254 Ry
     estimated scf accuracy    <       0.00000018 Ry

     iteration #  5     ecut=    30.00 Ry     beta= 0.70
     Davidson diagonalization with overlap
     ethr =  4.12E-10,  avg # of iterations =  4.3

     total cpu time spent up to now is      165.5 secs

     total energy              =    -333.18593258 Ry
     estimated scf accuracy    <       0.00000002 Ry

     iteration #  6     ecut=    30.00 Ry     beta= 0.70
     Davidson diagonalization with overlap
     ethr =  3.50E-11,  avg # of iterations =  3.5

     total cpu time spent up to now is      165.9 secs

     total energy              =    -333.18593258 Ry
     estimated scf accuracy    <          1.6E-09 Ry

     iteration #  7     ecut=    30.00 Ry     beta= 0.70
     Davidson diagonalization with overlap
     ethr =  3.69E-12,  avg # of iterations =  4.8

     total cpu time spent up to now is      166.4 secs

     End of self-consistent calculation

          k = 0.1250 0.1250 0.1250 (  1090 PWs)   bands (ev):

   -44.6386 -21.2822 -21.2478 -21.2469  -6.4168  -5.3646  -5.2552  -3.8873
    -3.8859  -3.8628  -3.7182  -3.6334   4.6842   7.2099   7.3037   8.0772
     9.0443   9.0732   9.6645   9.7794   9.9436  10.2447

          k = 0.1250 0.1250 0.3750 (  1095 PWs)   bands (ev):

   -44.6374 -21.3402 -21.2456 -21.2447  -6.0377  -5.2655  -5.0596  -3.9312
    -3.8731  -3.8611  -3.7271  -3.6823   3.9578   6.8430   7.1493   7.7266
     8.5308   8.6642   9.3405   9.8488  10.0284  10.9457

          k = 0.1250 0.3750 0.3750 (  1087 PWs)   bands (ev):

   -44.6361 -21.3366 -21.3011 -21.2431  -5.8058  -5.1348  -4.9586  -3.9130
    -3.8695  -3.8133  -3.7080  -3.5264   3.6072   6.5988   6.9341   7.1412
     7.4392   8.6358   9.3790   9.4321  10.1429  10.6673

          k = 0.3750 0.3750 0.3750 (  1082 PWs)   bands (ev):

   -44.6348 -21.3340 -21.2987 -21.2986  -5.3972  -5.2501  -5.1350  -3.8251
    -3.8218  -3.5624  -3.4597  -3.4340   4.0790   5.8947   5.9466   6.6290
     7.0989   7.1060   8.2119  10.5843  10.6142  10.7002

          k = 0.3750-0.1250 0.1250 (  1095 PWs)   bands (ev):

   -44.6374 -21.3049 -21.2798 -21.2452  -5.9985  -5.2338  -5.1750  -3.9433
    -3.8769  -3.8579  -3.7351  -3.6315   3.9376   6.8054   7.3028   7.8211
     8.3680   8.7780   9.3066   9.8522   9.9709  10.9197

          k = 0.3750-0.3750 0.1250 (  1087 PWs)   bands (ev):

   -44.6361 -21.3019 -21.3008 -21.2774  -5.7214  -5.1487  -5.1095  -3.9130
    -3.8494  -3.7510  -3.6512  -3.5889   3.4776   6.7514   6.8285   7.1862
     7.5430   8.7133   9.4637   9.4736  10.1196  10.6225

     highest occupied level (ev):    10.9457

!    total energy              =    -333.18593258 Ry
     estimated scf accuracy    <          7.7E-10 Ry

     The total energy is the sum of the following terms:
     one-electron contribution =     -77.88696612 Ry
     hartree contribution      =      66.93930696 Ry
     xc contribution           =     -49.68069618 Ry
     ewald contribution        =    -272.55757725 Ry

     convergence has been achieved in   7 iterations

     Forces acting on atoms (cartesian axes, Ry/au):

     atom    1 type  2   force =     0.00000000    0.00000000    0.00076150
     atom    2 type  3   force =     0.00000000    0.00000000   -0.00308381
     atom    3 type  1   force =     0.00000000    0.00000000    0.00101930
     atom    4 type  1   force =     0.00000000    0.00000000    0.00101930
     atom    5 type  1   force =     0.00000000    0.00000000    0.00028372

     Total force =     0.001469     Total SCF correction =     0.000025


     Computing stress (Cartesian axis) and pressure

          total   stress  (Ry/bohr**3)                   (kbar)     P=        2.00
  -0.00004106   0.00000000   0.00000000           -6.04        0.00        0.00
   0.00000000  -0.00004106   0.00000000            0.00       -6.04        0.00
   0.00000000   0.00000000   0.00012295            0.00        0.00       18.09

     Energy error            =      2.5E-05 Ry
     Gradient error          =      1.0E-03 Ry/Bohr

     number of scf cycles    =  31
     number of bfgs steps    =  29

     energy             old  =    -333.1859074778 Ry
     energy             new  =    -333.1859325823 Ry

     CASE: energy            _new < energy            _old

     new trust radius        =       0.0138720369 bohr
     new conv_thr            =       0.0000000010 Ry


ATOMIC_POSITIONS (angstrom)
Pb               0.0000000000        0.0000000000        0.0000000000    0   0   0
Ti               1.9375000000        1.9375000000        2.0440600000    0   0   0
O                0.0000000000        1.9375000000        2.2091836997
O                1.9375000000        0.0000000000        2.2091836997
O                1.9375000000        1.9375000000        0.2248468643


     Message from routine punch:
     Nothing written, as per user request (disk_io='none')
     NEW-OLD atomic charge density approx. for the potential

     total cpu time spent up to now is      168.1 secs

     Self-consistent Calculation

     iteration #  1     ecut=    30.00 Ry     beta= 0.70
     Davidson diagonalization with overlap
     ethr =  1.00E-06,  avg # of iterations =  5.3

     Threshold (ethr) on eigenvalues was too large:
     Diagonalizing with lowered threshold

     Davidson diagonalization with overlap
     ethr =  7.90E-08,  avg # of iterations =  3.2

     total cpu time spent up to now is      168.8 secs

     total energy              =    -333.18594958 Ry
     estimated scf accuracy    <       0.00003590 Ry

     iteration #  2     ecut=    30.00 Ry     beta= 0.70
     Davidson diagonalization with overlap
     ethr =  8.16E-08,  avg # of iterations =  2.7

     total cpu time spent up to now is      169.2 secs

     total energy              =    -333.18595545 Ry
     estimated scf accuracy    <       0.00000297 Ry

     iteration #  3     ecut=    30.00 Ry     beta= 0.70
     Davidson diagonalization with overlap
     ethr =  6.75E-09,  avg # of iterations =  4.8

     total cpu time spent up to now is      169.6 secs

     total energy              =    -333.18595607 Ry
     estimated scf accuracy    <       0.00000115 Ry

     iteration #  4     ecut=    30.00 Ry     beta= 0.70
     Davidson diagonalization with overlap
     ethr =  2.60E-09,  avg # of iterations =  4.7

     total cpu time spent up to now is      170.1 secs

     total energy              =    -333.18595635 Ry
     estimated scf accuracy    <       0.00000048 Ry

     iteration #  5     ecut=    30.00 Ry     beta= 0.70
     Davidson diagonalization with overlap
     ethr =  1.10E-09,  avg # of iterations =  4.0

     total cpu time spent up to now is      170.5 secs

     total energy              =    -333.18595644 Ry
     estimated scf accuracy    <       0.00000002 Ry

     iteration #  6     ecut=    30.00 Ry     beta= 0.70
     Davidson diagonalization with overlap
     ethr =  4.45E-11,  avg # of iterations =  5.7

     total cpu time spent up to now is      171.0 secs

     total energy              =    -333.18595644 Ry
     estimated scf accuracy    <       0.00000003 Ry

     iteration #  7     ecut=    30.00 Ry     beta= 0.70
     Davidson diagonalization with overlap
     ethr =  4.45E-11,  avg # of iterations =  4.0

     total cpu time spent up to now is      171.4 secs

     total energy              =    -333.18595645 Ry
     estimated scf accuracy    <          3.3E-09 Ry

     iteration #  8     ecut=    30.00 Ry     beta= 0.70
     Davidson diagonalization with overlap
     ethr =  7.41E-12,  avg # of iterations =  4.7

     total cpu time spent up to now is      171.8 secs

     total energy              =    -333.18595645 Ry
     estimated scf accuracy    <          1.0E-09 Ry

     iteration #  9     ecut=    30.00 Ry     beta= 0.70
     Davidson diagonalization with overlap
     ethr =  2.32E-12,  avg # of iterations =  3.0

     total cpu time spent up to now is      172.3 secs

     End of self-consistent calculation

          k = 0.1250 0.1250 0.1250 (  1090 PWs)   bands (ev):

   -44.6355 -21.2827 -21.2445 -21.2435  -6.4215  -5.3687  -5.2556  -3.8838
    -3.8823  -3.8587  -3.7152  -3.6257   4.6851   7.2031   7.3029   8.0749
     9.0359   9.0686   9.6487   9.7715   9.9425  10.2462

          k = 0.1250 0.1250 0.3750 (  1095 PWs)   bands (ev):

   -44.6343 -21.3407 -21.2423 -21.2413  -6.0428  -5.2705  -5.0598  -3.9272
    -3.8691  -3.8570  -3.7191  -3.6792   3.9579   6.8410   7.1344   7.7198
     8.5375   8.6566   9.3396   9.8412  10.0248  10.9510

          k = 0.1250 0.3750 0.3750 (  1087 PWs)   bands (ev):

   -44.6330 -21.3371 -21.2977 -21.2397  -5.8100  -5.1419  -4.9607  -3.9092
    -3.8654  -3.8093  -3.7028  -3.5195   3.6093   6.5885   6.9371   7.1406
     7.4351   8.6353   9.3766   9.4268  10.1471  10.6625

          k = 0.3750 0.3750 0.3750 (  1082 PWs)   bands (ev):

   -44.6317 -21.3345 -21.2953 -21.2951  -5.4028  -5.2560  -5.1362  -3.8213
    -3.8176  -3.5602  -3.4550  -3.4280   4.0740   5.8929   5.9455   6.6234
     7.1058   7.1154   8.2229  10.5795  10.6075  10.6947

          k = 0.3750-0.1250 0.1250 (  1095 PWs)   bands (ev):

   -44.6343 -21.3016 -21.2802 -21.2419  -6.0031  -5.2394  -5.1785  -3.9394
    -3.8732  -3.8538  -3.7286  -3.6251   3.9378   6.8057   7.3013   7.8185
     8.3632   8.7815   9.2997   9.8454   9.9608  10.9210

          k = 0.3750-0.3750 0.1250 (  1087 PWs)   bands (ev):

   -44.6330 -21.2985 -21.2974 -21.2779  -5.7243  -5.1553  -5.1176  -3.9089
    -3.8448  -3.7443  -3.6432  -3.5855   3.4737   6.7492   6.8301   7.1863
     7.5464   8.7149   9.4623   9.4755  10.1226  10.6174

     highest occupied level (ev):    10.9510

!    total energy              =    -333.18595645 Ry
     estimated scf accuracy    <          1.7E-10 Ry

     The total energy is the sum of the following terms:
     one-electron contribution =     -77.95667125 Ry
     hartree contribution      =      66.97538639 Ry
     xc contribution           =     -49.68267464 Ry
     ewald contribution        =    -272.52199695 Ry

     convergence has been achieved in   9 iterations

     Forces acting on atoms (cartesian axes, Ry/au):

     atom    1 type  2   force =     0.00000000    0.00000000    0.00064485
     atom    2 type  3   force =     0.00000000    0.00000000   -0.00190423
     atom    3 type  1   force =     0.00000000    0.00000000    0.00057338
     atom    4 type  1   force =     0.00000000    0.00000000    0.00057338
     atom    5 type  1   force =     0.00000000    0.00000000    0.00011261

     Total force =     0.000819     Total SCF correction =     0.000008


     Computing stress (Cartesian axis) and pressure

          total   stress  (Ry/bohr**3)                   (kbar)     P=        3.03
  -0.00003919   0.00000000   0.00000000           -5.77        0.00        0.00
   0.00000000  -0.00003919   0.00000000            0.00       -5.77        0.00
   0.00000000   0.00000000   0.00014027            0.00        0.00       20.63

     Energy error            =      2.4E-05 Ry
     Gradient error          =      5.7E-04 Ry/Bohr

     bfgs converged in  32 scf cycles and  30 bfgs steps
     (criteria: energy <  1.0E-04 Ry, force <  1.0E-03 Ry/Bohr)

     End of BFGS Geometry Optimization

     Final energy             =    -333.1859564482 Ry

     File /home/bond/Work/Lab4/Problem2/PbTiO3_a_3.875_ecut_30_nk_4_displ_0.0275/pwscf.bfgs deleted, as requested
Begin final coordinates

ATOMIC_POSITIONS (angstrom)
Pb               0.0000000000        0.0000000000        0.0000000000    0   0   0
Ti               1.9375000000        1.9375000000        2.0440600000    0   0   0
O                0.0000000000        1.9375000000        2.2091836997
O                1.9375000000        0.0000000000        2.2091836997
O                1.9375000000        1.9375000000        0.2248468643
End final coordinates


     Message from routine punch:
     Nothing written, as per user request (disk_io='none')

     init_run     :      1.09s CPU      1.15s WALL (       1 calls)
     electrons    :    105.36s CPU    122.79s WALL (      32 calls)
     update_pot   :      0.19s CPU      0.20s WALL (      31 calls)
     forces       :      4.45s CPU      5.27s WALL (      32 calls)
     stress       :     37.41s CPU     39.90s WALL (      32 calls)

     Called by init_run:
     wfcinit      :      0.08s CPU      0.09s WALL (       1 calls)
     potinit      :      0.09s CPU      0.09s WALL (       1 calls)
     hinit0       :      0.71s CPU      0.73s WALL (       1 calls)

     Called by electrons:
     c_bands      :     47.99s CPU     51.80s WALL (     271 calls)
     sum_band     :     32.96s CPU     40.13s WALL (     271 calls)
     v_of_rho     :      0.85s CPU      0.90s WALL (     286 calls)
     newd         :     25.67s CPU     32.82s WALL (     286 calls)
     mix_rho      :      0.43s CPU      0.47s WALL (     271 calls)

     Called by c_bands:
     init_us_2    :      1.41s CPU      1.52s WALL (    3642 calls)
     cegterg      :     45.06s CPU     48.67s WALL (    1626 calls)

     Called by *egterg:
     cdiaghg      :      5.77s CPU      6.15s WALL (    8169 calls)
     h_psi        :     31.10s CPU     33.78s WALL (    8463 calls)
     s_psi        :      1.27s CPU      1.39s WALL (    8463 calls)
     g_psi        :      0.21s CPU      0.22s WALL (    6831 calls)

     Called by h_psi:
     h_psi:calbec :      2.30s CPU      2.54s WALL (    8463 calls)
     vloc_psi     :     27.10s CPU     29.39s WALL (    8463 calls)
     add_vuspsi   :      1.44s CPU      1.58s WALL (    8463 calls)

     General routines
     calbec       :      3.92s CPU      4.25s WALL (   13353 calls)
     fft          :      1.45s CPU      1.53s WALL (    1860 calls)
     ffts         :      0.13s CPU      0.13s WALL (     557 calls)
     fftw         :     24.77s CPU     26.90s WALL (  253492 calls)
     interpolate  :      0.31s CPU      0.33s WALL (     286 calls)

     Parallel routines

     PWSCF        :   2m31.91s CPU   2m53.63s WALL


   This run was terminated on:  13:33:52  21Oct2025            

=------------------------------------------------------------------------------=
   JOB DONE.
=------------------------------------------------------------------------------=
