LAMMPS (22 Jul 2025 - Update 1)
Reading data file ...
  orthogonal box = (0 0 0) to (8.7451919 8.7451919 8.0612615)
  1 by 1 by 1 MPI processor grid
  reading atoms ...
  18 atoms
  read_data CPU = 0.001 seconds
WARNING: No fixes with time integration, atoms won't move
For more information see https://docs.lammps.org/err0028 (../verlet.cpp:60)
Generated 0 of 0 mixed pair_coeff terms from geometric mixing rule
Neighbor list info ...
  update: every = 1 steps, delay = 0 steps, check = yes
  max neighbors/atom: 2000, page size: 100000
  master list distance cutoff = 6.5
  ghost atom cutoff = 6.5
  binsize = 3.25, bins = 3 3 3
  1 neighbor lists, perpetual/occasional/extra = 1 0 0
  (1) pair lj/cut, perpetual
      attributes: half, newton on
      pair build: half/bin/atomonly/newton
      stencil: half/bin/3d
      bin: standard
Setting up Verlet run ...
  Unit style    : metal
  Current step  : 0
  Time step     : 0.001
Per MPI rank memory allocation (min/avg/max) = 3.051 | 3.051 | 3.051 Mbytes
   Step         PotEng           Lx             Ly             Lz           Press           Pxx            Pyy            Pzz      
         0  -31.615252      8.7451919      8.7451919      8.0612615      0.37602297    -6293.8477     -6293.8477      12588.823    
Loop time of 1.896e-06 on 1 procs for 0 steps with 18 atoms

52.7% CPU use with 1 MPI tasks x no OpenMP threads

MPI task timing breakdown:
Section |  min time  |  avg time  |  max time  |%varavg| %total
---------------------------------------------------------------
Pair    | 0          | 0          | 0          |   0.0 |  0.00
Neigh   | 0          | 0          | 0          |   0.0 |  0.00
Comm    | 0          | 0          | 0          |   0.0 |  0.00
Output  | 0          | 0          | 0          |   0.0 |  0.00
Modify  | 0          | 0          | 0          |   0.0 |  0.00
Other   |            | 1.896e-06  |            |       |100.00

Nlocal:             18 ave          18 max          18 min
Histogram: 1 0 0 0 0 0 0 0 0 0
Nghost:             95 ave          95 max          95 min
Histogram: 1 0 0 0 0 0 0 0 0 0
Neighs:            216 ave         216 max         216 min
Histogram: 1 0 0 0 0 0 0 0 0 0

Total # of neighbors = 216
Ave neighs/atom = 12
Neighbor list builds = 0
Dangerous builds = 0
Generated 0 of 0 mixed pair_coeff terms from geometric mixing rule
Setting up cg style minimization ...
  Unit style    : metal
  Current step  : 0
WARNING: Energy due to 3 extra global DOFs will be included in minimizer energies
 (../min.cpp:222)
Per MPI rank memory allocation (min/avg/max) = 4.176 | 4.176 | 4.176 Mbytes
   Step         PotEng           Lx             Ly             Lz           Press           Pxx            Pyy            Pzz      
         0  -31.615252      8.7451919      8.7451919      8.0612615      0.37602297    -6293.8477     -6293.8477      12588.823    
        18  -31.697723      8.6734342      8.6734342      8.0612615     -0.248259      -0.31268612    -0.31268612    -0.11940477   
Loop time of 0.000209313 on 1 procs for 18 steps with 18 atoms

50.2% CPU use with 1 MPI tasks x no OpenMP threads

Minimization stats:
  Stopping criterion = energy tolerance
  Energy initial, next-to-last, final = 
     -31.6152522709876  -31.6977230743557  -31.6977230769027
  Force two-norm initial, final = 3.5997284 0.00016909347
  Force max component initial, final = 2.4218518 0.00011933331
  Final line search alpha, max atom move = 1 0.00011933331
  Iterations, force evaluations = 18 22

MPI task timing breakdown:
Section |  min time  |  avg time  |  max time  |%varavg| %total
---------------------------------------------------------------
Pair    | 8.98e-05   | 8.98e-05   | 8.98e-05   |   0.0 | 42.90
Neigh   | 0          | 0          | 0          |   0.0 |  0.00
Comm    | 1.4571e-05 | 1.4571e-05 | 1.4571e-05 |   0.0 |  6.96
Output  | 0          | 0          | 0          |   0.0 |  0.00
Modify  | 0          | 0          | 0          |   0.0 |  0.00
Other   |            | 0.0001049  |            |       | 50.14

Nlocal:             18 ave          18 max          18 min
Histogram: 1 0 0 0 0 0 0 0 0 0
Nghost:             95 ave          95 max          95 min
Histogram: 1 0 0 0 0 0 0 0 0 0
Neighs:            216 ave         216 max         216 min
Histogram: 1 0 0 0 0 0 0 0 0 0

Total # of neighbors = 216
Ave neighs/atom = 12
Neighbor list builds = 0
Dangerous builds = 0
Total energy (eV) = -31.6977230769027
Number of atoms = 18
Lattice constant (Angstoms) = 8.67343421201581
Total wall time: 0:00:00
