Header of the LAMMPS data file 

9 atoms 
1 atom types

0.0 8.658497585076876  xlo xhi
0.0 8.658497585076876  ylo yhi
0.0 6.0  zlo zhi

Masses 

1  26.9815385

Atoms # atomic 

1 1 0.00000 0.00000 3.00000 
2 1 2.88617 0.00000 3.00000 
3 1 5.77233 0.00000 3.00000 
4 1 0.00000 2.88617 3.00000 
5 1 2.88617 2.88617 3.00000 
6 1 5.77233 2.88617 3.00000 
7 1 0.00000 5.77233 3.00000 
8 1 2.88617 5.77233 3.00000 
9 1 5.77233 5.77233 3.00000 
