
     Program PWSCF v.7.4.1 starts on  9Oct2025 at 13: 3:16 

     This program is part of the open-source Quantum ESPRESSO suite
     for quantum simulation of materials; please cite
         "P. Giannozzi et al., J. Phys.:Condens. Matter 21 395502 (2009);
         "P. Giannozzi et al., J. Phys.:Condens. Matter 29 465901 (2017);
         "P. Giannozzi et al., J. Chem. Phys. 152 154105 (2020);
          URL http://www.quantum-espresso.org", 
     in publications or presentations arising from this work. More details at
     http://www.quantum-espresso.org/quote

     Parallel version (MPI), running on     1 processors

     MPI processes distributed on     1 nodes
     422 MiB available memory on the printing compute node when the environment starts

     Waiting for input...
     Reading input from standard input
Warning: card &CELL ignored
Warning: card / ignored

     Current dimensions of program PWSCF are:
     Max number of different atomic species (ntypx) = 10
     Max number of k-points (npk) =  40000
     Max angular momentum in pseudopotentials (lmaxx) =  4
     Message from routine setup:
     using ibrav=0 with symmetry is DISCOURAGED, use correct ibrav instead

     Subspace diagonalization in iterative solution of the eigenvalue problem:
     a serial algorithm will be used


     G-vector sticks info
     --------------------
     sticks:   dense  smooth     PW     G-vecs:    dense   smooth      PW
     Sum        1189    1189    349                26933    26933    4279

     Using Slab Decomposition



     bravais-lattice index     =            0
     lattice parameter (alat)  =       7.5872  a.u.
     unit-cell volume          =     308.8323 (a.u.)^3
     number of atoms/cell      =            2
     number of atomic types    =            1
     number of electrons       =        28.00
     number of Kohn-Sham states=           14
     kinetic-energy cutoff     =      75.0000  Ry
     charge density cutoff     =     300.0000  Ry
     scf convergence threshold =      1.0E-07
     mixing beta               =       0.5000
     number of iterations used =            8  plain     mixing
     Exchange-correlation=  SLA  PZ   NOGX NOGC
                           (   1   1   0   0   0   0   0)

     celldm(1)=   7.587160  celldm(2)=   0.000000  celldm(3)=   0.000000
     celldm(4)=   0.000000  celldm(5)=   0.000000  celldm(6)=   0.000000

     crystal axes: (cart. coord. in units of alat)
               a(1) = (   0.000000   0.707107   0.707107 )  
               a(2) = (   0.707107   0.000000   0.707107 )  
               a(3) = (   0.707107   0.707107   0.000000 )  

     reciprocal axes: (cart. coord. in units 2 pi/alat)
               b(1) = ( -0.707107  0.707107  0.707107 )  
               b(2) = (  0.707107 -0.707107  0.707107 )  
               b(3) = (  0.707107  0.707107 -0.707107 )  


     PseudoPot. # 1 for Ge read from file:
     /home/bond/Software/QE/qe-7.4.1/pseudo/ge_lda_v1.4.uspp.F.UPF
     MD5 check sum: bf9d52b59cc8a669818bb2b52e0c2ba0
     Pseudo is Ultrasoft + core correction, Zval = 14.0
     Generated by new atomic code, or converted to UPF format
     Using radial grid of  873 points,  6 beta functions with: 
                l(1) =   0
                l(2) =   0
                l(3) =   1
                l(4) =   1
                l(5) =   2
                l(6) =   2
     Q(r) pseudized with  8 coefficients,  rinner =    1.400   1.400   1.400
                                                       1.400   1.400

     atomic species   valence    mass     pseudopotential
     Ge               14.00    72.63000     Ge( 1.00)

     48 Sym. Ops., with inversion, found (24 have fractional translation)



   Cartesian axes

     site n.     atom                  positions (alat units)
         1        Ge     tau(   1) = (   0.0000000   0.0000000   0.0000000  )
         2        Ge     tau(   2) = (   0.3535534   0.3535534   0.3535534  )

     number of k points=     8
                       cart. coord. in units 2pi/alat
        k(    1) = (   0.0000000   0.0000000   0.0000000), wk =   0.0312500
        k(    2) = (   0.1767767   0.1767767  -0.1767767), wk =   0.2500000
        k(    3) = (  -0.3535534  -0.3535534   0.3535534), wk =   0.1250000
        k(    4) = (   0.3535534   0.0000000   0.0000000), wk =   0.1875000
        k(    5) = (  -0.1767767  -0.5303301   0.5303301), wk =   0.7500000
        k(    6) = (   0.0000000  -0.3535534   0.3535534), wk =   0.3750000
        k(    7) = (  -0.7071068   0.0000000   0.0000000), wk =   0.0937500
        k(    8) = (  -0.7071068   0.3535534   0.0000000), wk =   0.1875000

     Dense  grid:    26933 G-vectors     FFT dimensions: (  48,  48,  48)

     Estimated max dynamical RAM per process >     111.16 MB

     Check: negative core charge=   -0.000001

     Initial potential from superposition of free atoms

     starting charge      27.9986, renormalised to      28.0000
     Starting wfcs are   18 randomized atomic wfcs

     total cpu time spent up to now is        1.2 secs

     Self-consistent Calculation

     iteration #  1     ecut=    75.00 Ry     beta= 0.50
     Davidson diagonalization with overlap
     ethr =  1.00E-02,  avg # of iterations =  1.9

     Threshold (ethr) on eigenvalues was too large:
     Diagonalizing with lowered threshold

     Davidson diagonalization with overlap
     ethr =  1.28E-04,  avg # of iterations =  1.9

     total cpu time spent up to now is        2.4 secs

     total energy              =    -426.15268668 Ry
     estimated scf accuracy    <       0.03868668 Ry

     iteration #  2     ecut=    75.00 Ry     beta= 0.50
     Davidson diagonalization with overlap
     ethr =  1.38E-04,  avg # of iterations =  1.1

     total cpu time spent up to now is        3.0 secs

     total energy              =    -426.15116737 Ry
     estimated scf accuracy    <       0.00688712 Ry

     iteration #  3     ecut=    75.00 Ry     beta= 0.50
     Davidson diagonalization with overlap
     ethr =  2.46E-05,  avg # of iterations =  2.0

     total cpu time spent up to now is        3.7 secs

     total energy              =    -426.15165630 Ry
     estimated scf accuracy    <       0.00007379 Ry

     iteration #  4     ecut=    75.00 Ry     beta= 0.50
     Davidson diagonalization with overlap
     ethr =  2.64E-07,  avg # of iterations =  3.1

     total cpu time spent up to now is        4.5 secs

     total energy              =    -426.15167571 Ry
     estimated scf accuracy    <       0.00000330 Ry

     iteration #  5     ecut=    75.00 Ry     beta= 0.50
     Davidson diagonalization with overlap
     ethr =  1.18E-08,  avg # of iterations =  4.1

     total cpu time spent up to now is        5.3 secs

     total energy              =    -426.15167662 Ry
     estimated scf accuracy    <       0.00000015 Ry

     iteration #  6     ecut=    75.00 Ry     beta= 0.50
     Davidson diagonalization with overlap
     ethr =  5.49E-10,  avg # of iterations =  3.8

     total cpu time spent up to now is        6.1 secs

     End of self-consistent calculation

          k = 0.0000 0.0000 0.0000 (  3383 PWs)   bands (ev):

   -16.8023 -16.8023 -16.8023 -16.7670 -16.7670 -16.5615 -16.5615 -16.5615
   -16.5491 -16.5491  -4.6867   7.7741   8.0585   8.0585

          k = 0.1768 0.1768-0.1768 (  3398 PWs)   bands (ev):

   -16.8200 -16.8200 -16.7938 -16.7392 -16.7392 -16.5869 -16.5869 -16.5714
   -16.5289 -16.5289  -3.9525   3.2888   7.1835   7.1835

          k =-0.3536-0.3536 0.3536 (  3354 PWs)   bands (ev):

   -16.8262 -16.8262 -16.7851 -16.7262 -16.7262 -16.5957 -16.5957 -16.5817
   -16.5221 -16.5221  -2.6239   0.4509   6.6666   6.6666

          k = 0.3536 0.0000 0.0000 (  3399 PWs)   bands (ev):

   -16.8201 -16.8201 -16.8083 -16.7338 -16.6997 -16.6464 -16.5798 -16.5366
   -16.5338 -16.5338  -3.6871   3.2635   6.0386   6.0386

          k =-0.1768-0.5303 0.5303 (  3393 PWs)   bands (ev):

   -16.8467 -16.8321 -16.7656 -16.7000 -16.6809 -16.6627 -16.6161 -16.5854
   -16.5144 -16.5004  -2.2162   0.6436   4.3427   5.6774

          k = 0.0000-0.3536 0.3536 (  3398 PWs)   bands (ev):

   -16.8420 -16.8347 -16.7595 -16.7239 -16.6972 -16.6272 -16.6081 -16.5958
   -16.5110 -16.5076  -2.8231   1.4885   4.2071   6.5669

          k =-0.7071 0.0000 0.0000 (  3378 PWs)   bands (ev):

   -16.8355 -16.8355 -16.7517 -16.7517 -16.6555 -16.6555 -16.5995 -16.5995
   -16.5085 -16.5085  -0.8459  -0.8459   5.0111   5.0111

          k =-0.7071 0.3536 0.0000 (  3380 PWs)   bands (ev):

   -16.8489 -16.8489 -16.7105 -16.7105 -16.6630 -16.6630 -16.6317 -16.6317
   -16.4967 -16.4967  -0.7511  -0.7511   4.1748   4.1748

     highest occupied level (ev):     8.0585

!    total energy              =    -426.15167666 Ry
     estimated scf accuracy    <       0.00000003 Ry

     The total energy is the sum of the following terms:
     one-electron contribution =    -280.39093891 Ry
     hartree contribution      =     165.57701667 Ry
     xc contribution           =    -114.53892741 Ry
     ewald contribution        =    -196.79882701 Ry

     convergence has been achieved in   6 iterations

     Forces acting on atoms (cartesian axes, Ry/au):

     atom    1 type  1   force =     0.00000000   -0.00000000    0.00000000
     atom    2 type  1   force =     0.00000000   -0.00000000   -0.00000000

     Total force =     0.000000     Total SCF correction =     0.000000


     Computing stress (Cartesian axis) and pressure

          total   stress  (Ry/bohr**3)                   (kbar)     P=      -10.02
  -0.00006811   0.00000000  -0.00000000          -10.02        0.00       -0.00
   0.00000000  -0.00006811   0.00000000            0.00      -10.02        0.00
  -0.00000000   0.00000000  -0.00006811           -0.00        0.00      -10.02

     Message from routine punch:
     Nothing written, as per user request (disk_io='none')

     init_run     :      1.06s CPU      1.08s WALL (       1 calls)
     electrons    :      4.80s CPU      4.96s WALL (       1 calls)
     forces       :      0.11s CPU      0.13s WALL (       1 calls)
     stress       :      0.94s CPU      0.96s WALL (       1 calls)

     Called by init_run:
     wfcinit      :      0.47s CPU      0.48s WALL (       1 calls)
     potinit      :      0.02s CPU      0.02s WALL (       1 calls)
     hinit0       :      0.48s CPU      0.49s WALL (       1 calls)

     Called by electrons:
     c_bands      :      3.31s CPU      3.33s WALL (       7 calls)
     sum_band     :      1.07s CPU      1.14s WALL (       7 calls)
     v_of_rho     :      0.04s CPU      0.04s WALL (       7 calls)
     newd         :      0.43s CPU      0.52s WALL (       7 calls)
     mix_rho      :      0.01s CPU      0.01s WALL (       7 calls)

     Called by c_bands:
     init_us_2    :      0.11s CPU      0.11s WALL (     136 calls)
     cegterg      :      3.06s CPU      3.07s WALL (      56 calls)

     Called by *egterg:
     cdiaghg      :      0.03s CPU      0.03s WALL (     191 calls)
     h_psi        :      3.15s CPU      3.16s WALL (     207 calls)
     s_psi        :      0.06s CPU      0.06s WALL (     207 calls)
     g_psi        :      0.02s CPU      0.02s WALL (     143 calls)

     Called by h_psi:
     h_psi:calbec :      0.08s CPU      0.08s WALL (     207 calls)
     vloc_psi     :      2.99s CPU      3.00s WALL (     207 calls)
     add_vuspsi   :      0.06s CPU      0.06s WALL (     207 calls)

     General routines
     calbec       :      0.16s CPU      0.16s WALL (     399 calls)
     fft          :      0.31s CPU      0.31s WALL (      37 calls)
     ffts         :      0.01s CPU      0.01s WALL (       7 calls)
     fftw         :      3.05s CPU      3.06s WALL (    5042 calls)

     Parallel routines

     PWSCF        :      6.99s CPU      7.21s WALL


   This run was terminated on:  13: 3:23   9Oct2025            

=------------------------------------------------------------------------------=
   JOB DONE.
=------------------------------------------------------------------------------=
