
     Program PWSCF v.7.4.1 starts on 21Oct2025 at  0:37: 8 

     This program is part of the open-source Quantum ESPRESSO suite
     for quantum simulation of materials; please cite
         "P. Giannozzi et al., J. Phys.:Condens. Matter 21 395502 (2009);
         "P. Giannozzi et al., J. Phys.:Condens. Matter 29 465901 (2017);
         "P. Giannozzi et al., J. Chem. Phys. 152 154105 (2020);
          URL http://www.quantum-espresso.org", 
     in publications or presentations arising from this work. More details at
     http://www.quantum-espresso.org/quote

     Parallel version (MPI), running on     2 processors

     MPI processes distributed on     1 nodes
     205 MiB available memory on the printing compute node when the environment starts

     Waiting for input...
     Reading input from standard input
Warning: card &CELL ignored
Warning: card / ignored

     Current dimensions of program PWSCF are:
     Max number of different atomic species (ntypx) = 10
     Max number of k-points (npk) =  40000
     Max angular momentum in pseudopotentials (lmaxx) =  4
     file Fe.pbe-nd-rrkjus.UPF: wavefunction(s)  4S renormalized
     Message from routine setup:
     using ibrav=0 with symmetry is DISCOURAGED, use correct ibrav instead

     R & G space division:  proc/nbgrp/npool/nimage =       2
     Subspace diagonalization in iterative solution of the eigenvalue problem:
     a serial algorithm will be used


     Parallelization info
     --------------------
     sticks:   dense  smooth     PW     G-vecs:    dense   smooth      PW
     Min         346     138     58                 5768     1449     395
     Max         347     139     59                 5769     1450     396
     Sum         693     277    117                11537     2899     791

     Using Slab Decomposition



     bravais-lattice index     =            0
     lattice parameter (alat)  =       5.5643  a.u.
     unit-cell volume          =     132.6183 (a.u.)^3
     number of atoms/cell      =            1
     number of atomic types    =            1
     number of electrons       =         8.00
     number of Kohn-Sham states=            8
     kinetic-energy cutoff     =      30.0000  Ry
     charge density cutoff     =     300.0000  Ry
     scf convergence threshold =      1.0E-07
     mixing beta               =       0.5000
     number of iterations used =            8  plain     mixing
     Exchange-correlation=  SLA  PW   PBE  PBE
                           (   1   4   3   4   0   0   0)

     celldm(1)=   5.564273  celldm(2)=   0.000000  celldm(3)=   0.000000
     celldm(4)=   0.000000  celldm(5)=   0.000000  celldm(6)=   0.000000

     crystal axes: (cart. coord. in units of alat)
               a(1) = (  -0.577350   0.577350   0.577350 )  
               a(2) = (   0.577350  -0.577350   0.577350 )  
               a(3) = (   0.577350   0.577350  -0.577350 )  

     reciprocal axes: (cart. coord. in units 2 pi/alat)
               b(1) = (  0.000000  0.866025  0.866025 )  
               b(2) = (  0.866025  0.000000  0.866025 )  
               b(3) = (  0.866025  0.866025  0.000000 )  


     PseudoPot. # 1 for Fe read from file:
     /home/bond/Software/QE/qe-7.4.1/pseudo/Fe.pbe-nd-rrkjus.UPF
     MD5 check sum: 398036227a04b607635f6f5e8dfd8242
     Pseudo is Ultrasoft + core correction, Zval =  8.0
     Generated by new atomic code, or converted to UPF format
     Using radial grid of  957 points,  6 beta functions with: 
                l(1) =   0
                l(2) =   0
                l(3) =   1
                l(4) =   1
                l(5) =   2
                l(6) =   2
     Q(r) pseudized with 0 coefficients 


     atomic species   valence    mass     pseudopotential
     Fe                8.00    55.84500     Fe( 1.00)

     Starting magnetic structure 
     atomic species   magnetization
     Fe              0.700

     48 Sym. Ops., with inversion, found



   Cartesian axes

     site n.     atom                  positions (alat units)
         1        Fe     tau(   1) = (   0.0000000   0.0000000   0.0000000  )

     number of k points=   104  Methfessel-Paxton smearing, width (Ry)=  0.0200

     Number of k-points >= 100: set verbosity='high' to print them.

     Dense  grid:    11537 G-vectors     FFT dimensions: (  32,  32,  32)

     Smooth grid:     2899 G-vectors     FFT dimensions: (  20,  20,  20)

     Estimated max dynamical RAM per process >      29.83 MB

     Estimated total dynamical RAM >      59.67 MB

     Check: negative core charge=   -0.000021
     Generating pointlists ...
     new r_m :   0.4125 (alat units)  2.2953 (a.u.) for type    1

     Initial potential from superposition of free atoms

     starting charge       7.9994, renormalised to       8.0000
     Starting wfcs are    6 randomized atomic wfcs +    2 random wfcs

     total cpu time spent up to now is        1.7 secs

     Self-consistent Calculation

     iteration #  1     ecut=    30.00 Ry     beta= 0.50
     Davidson diagonalization with overlap
     ethr =  1.00E-02,  avg # of iterations =  4.5

     total cpu time spent up to now is        3.3 secs

     total energy              =     -55.54179037 Ry
     estimated scf accuracy    <       0.41991997 Ry

     total magnetization       =     3.77 Bohr mag/cell
     absolute magnetization    =     3.77 Bohr mag/cell

     iteration #  2     ecut=    30.00 Ry     beta= 0.50
     Davidson diagonalization with overlap
     ethr =  5.25E-03,  avg # of iterations =  1.9

     total cpu time spent up to now is        4.3 secs

     total energy              =     -55.67367477 Ry
     estimated scf accuracy    <       0.24774171 Ry

     total magnetization       =     3.07 Bohr mag/cell
     absolute magnetization    =     3.08 Bohr mag/cell

     iteration #  3     ecut=    30.00 Ry     beta= 0.50
     Davidson diagonalization with overlap
     ethr =  3.10E-03,  avg # of iterations =  1.0

     total cpu time spent up to now is        5.1 secs

     total energy              =     -55.72125633 Ry
     estimated scf accuracy    <       0.00429965 Ry

     total magnetization       =     3.28 Bohr mag/cell
     absolute magnetization    =     3.34 Bohr mag/cell

     iteration #  4     ecut=    30.00 Ry     beta= 0.50
     Davidson diagonalization with overlap
     ethr =  5.37E-05,  avg # of iterations =  3.4

     total cpu time spent up to now is        6.4 secs

     total energy              =     -55.72591545 Ry
     estimated scf accuracy    <       0.00052466 Ry

     total magnetization       =     3.12 Bohr mag/cell
     absolute magnetization    =     3.32 Bohr mag/cell

     iteration #  5     ecut=    30.00 Ry     beta= 0.50
     Davidson diagonalization with overlap
     c_bands:  1 eigenvalues not converged
     ethr =  6.56E-06,  avg # of iterations =  5.0

     total cpu time spent up to now is        7.5 secs

     total energy              =     -55.72657867 Ry
     estimated scf accuracy    <       0.00019145 Ry

     total magnetization       =     3.02 Bohr mag/cell
     absolute magnetization    =     3.30 Bohr mag/cell

     iteration #  6     ecut=    30.00 Ry     beta= 0.50
     Davidson diagonalization with overlap
     ethr =  2.39E-06,  avg # of iterations =  3.2

     total cpu time spent up to now is        8.8 secs

     total energy              =     -55.72669132 Ry
     estimated scf accuracy    <       0.00010071 Ry

     total magnetization       =     3.01 Bohr mag/cell
     absolute magnetization    =     3.32 Bohr mag/cell

     iteration #  7     ecut=    30.00 Ry     beta= 0.50
     Davidson diagonalization with overlap
     ethr =  1.26E-06,  avg # of iterations =  1.7

     total cpu time spent up to now is        9.9 secs

     total energy              =     -55.72672343 Ry
     estimated scf accuracy    <       0.00000104 Ry

     total magnetization       =     3.00 Bohr mag/cell
     absolute magnetization    =     3.33 Bohr mag/cell

     iteration #  8     ecut=    30.00 Ry     beta= 0.50
     Davidson diagonalization with overlap
     ethr =  1.30E-08,  avg # of iterations =  5.7

     total cpu time spent up to now is       11.3 secs

     total energy              =     -55.72672536 Ry
     estimated scf accuracy    <       0.00000406 Ry

     total magnetization       =     3.00 Bohr mag/cell
     absolute magnetization    =     3.33 Bohr mag/cell

     iteration #  9     ecut=    30.00 Ry     beta= 0.50
     Davidson diagonalization with overlap
     ethr =  1.30E-08,  avg # of iterations =  2.2

     Magnetic moment per site  (integrated on atomic sphere of radius R)
     atom   1 (R=0.413)  charge=  6.7907  magn=  3.1560

     total cpu time spent up to now is       12.2 secs

     End of self-consistent calculation

     Number of k-points >= 100: set verbosity='high' to print the bands.

     the Fermi energy is     6.6753 ev

!    total energy              =     -55.72672622 Ry
     estimated scf accuracy    <          9.6E-09 Ry
     smearing contrib. (-TS)   =      -0.00035189 Ry
     internal energy E=F+TS    =     -55.72637433 Ry

     The total energy is F=E-TS. E is the sum of the following terms:
     one-electron contribution =      -2.81609339 Ry
     hartree contribution      =       9.62450692 Ry
     xc contribution           =     -26.28444610 Ry
     ewald contribution        =     -36.25034177 Ry

     total magnetization       =     3.00 Bohr mag/cell
     absolute magnetization    =     3.33 Bohr mag/cell

     convergence has been achieved in   9 iterations

     Forces acting on atoms (cartesian axes, Ry/au):

     atom    1 type  1   force =     0.00000000    0.00000000    0.00000000

     Total force =     0.000000     Total SCF correction =     0.000000


     Computing stress (Cartesian axis) and pressure

          total   stress  (Ry/bohr**3)                   (kbar)     P=     -263.13
  -0.00178870   0.00000000   0.00000000         -263.13        0.00        0.00
   0.00000000  -0.00178870   0.00000000            0.00     -263.13        0.00
   0.00000000   0.00000000  -0.00178870            0.00        0.00     -263.13

     Message from routine punch:
     Nothing written, as per user request (disk_io='none')

     init_run     :      1.03s CPU      1.46s WALL (       1 calls)
     electrons    :      9.19s CPU     10.53s WALL (       1 calls)
     forces       :      0.10s CPU      0.10s WALL (       1 calls)
     stress       :      0.53s CPU      0.53s WALL (       1 calls)

     Called by init_run:
     wfcinit      :      0.40s CPU      0.53s WALL (       1 calls)
     potinit      :      0.23s CPU      0.42s WALL (       1 calls)
     hinit0       :      0.32s CPU      0.37s WALL (       1 calls)

     Called by electrons:
     c_bands      :      7.34s CPU      8.52s WALL (       9 calls)
     sum_band     :      1.39s CPU      1.54s WALL (       9 calls)
     v_of_rho     :      0.26s CPU      0.28s WALL (      10 calls)
     newd         :      0.29s CPU      0.35s WALL (      10 calls)
     mix_rho      :      0.01s CPU      0.01s WALL (       9 calls)

     Called by c_bands:
     init_us_2    :      0.29s CPU      0.34s WALL (    4368 calls)
     cegterg      :      6.76s CPU      7.84s WALL (    1872 calls)

     Called by *egterg:
     cdiaghg      :      0.78s CPU      0.92s WALL (    7833 calls)
     h_psi        :      5.31s CPU      6.22s WALL (    8041 calls)
     s_psi        :      0.09s CPU      0.11s WALL (    8041 calls)
     g_psi        :      0.03s CPU      0.04s WALL (    5961 calls)

     Called by h_psi:
     h_psi:calbec :      0.30s CPU      0.34s WALL (    8041 calls)
     vloc_psi     :      4.81s CPU      5.64s WALL (    8041 calls)
     add_vuspsi   :      0.11s CPU      0.13s WALL (    8041 calls)

     General routines
     calbec       :      0.42s CPU      0.48s WALL (   13449 calls)
     fft          :      0.21s CPU      0.26s WALL (     288 calls)
     ffts         :      0.14s CPU      0.30s WALL (      38 calls)
     fftw         :      4.40s CPU      5.15s WALL (   98534 calls)
     interpolate  :      0.14s CPU      0.32s WALL (      20 calls)

     Parallel routines

     PWSCF        :     11.05s CPU     12.87s WALL


   This run was terminated on:   0:37:21  21Oct2025            

=------------------------------------------------------------------------------=
   JOB DONE.
=------------------------------------------------------------------------------=
