
     Program PWSCF v.7.4.1 starts on 21Oct2025 at 18: 2:55 

     This program is part of the open-source Quantum ESPRESSO suite
     for quantum simulation of materials; please cite
         "P. Giannozzi et al., J. Phys.:Condens. Matter 21 395502 (2009);
         "P. Giannozzi et al., J. Phys.:Condens. Matter 29 465901 (2017);
         "P. Giannozzi et al., J. Chem. Phys. 152 154105 (2020);
          URL http://www.quantum-espresso.org", 
     in publications or presentations arising from this work. More details at
     http://www.quantum-espresso.org/quote

     Parallel version (MPI), running on     2 processors

     MPI processes distributed on     1 nodes
     296 MiB available memory on the printing compute node when the environment starts

     Waiting for input...
     Reading input from standard input

     Current dimensions of program PWSCF are:
     Max number of different atomic species (ntypx) = 10
     Max number of k-points (npk) =  40000
     Max angular momentum in pseudopotentials (lmaxx) =  4
     file Cu.pz-d-rrkjus.UPF: wavefunction(s)  3D renormalized
     Message from routine setup:
     using ibrav=0 with symmetry is DISCOURAGED, use correct ibrav instead

     R & G space division:  proc/nbgrp/npool/nimage =       2
     Subspace diagonalization in iterative solution of the eigenvalue problem:
     a serial algorithm will be used


     Parallelization info
     --------------------
     sticks:   dense  smooth     PW     G-vecs:    dense   smooth      PW
     Min         255     126     45                 3815     1365     304
     Max         256     127     46                 3816     1368     305
     Sum         511     253     91                 7631     2733     609

     Using Slab Decomposition



     bravais-lattice index     =            0
     lattice parameter (alat)  =       4.8105  a.u.
     unit-cell volume          =      78.7126 (a.u.)^3
     number of atoms/cell      =            1
     number of atomic types    =            1
     number of electrons       =        11.00
     number of Kohn-Sham states=           10
     kinetic-energy cutoff     =      40.0000  Ry
     charge density cutoff     =     320.0000  Ry
     scf convergence threshold =      1.0E-07
     mixing beta               =       0.7000
     number of iterations used =            8  plain     mixing
     energy convergence thresh.=      1.0E-04
     force convergence thresh. =      1.0E-03
     press convergence thresh. =      5.0E-01
     Exchange-correlation=  SLA  PZ   NOGX NOGC
                           (   1   1   0   0   0   0   0)
     nstep                     =           50


     celldm(1)=   4.810457  celldm(2)=   0.000000  celldm(3)=   0.000000
     celldm(4)=   0.000000  celldm(5)=   0.000000  celldm(6)=   0.000000

     crystal axes: (cart. coord. in units of alat)
               a(1) = (   0.000000   0.707107   0.707107 )  
               a(2) = (   0.707107   0.000000   0.707107 )  
               a(3) = (   0.707107   0.707107   0.000000 )  

     reciprocal axes: (cart. coord. in units 2 pi/alat)
               b(1) = ( -0.707107  0.707107  0.707107 )  
               b(2) = (  0.707107 -0.707107  0.707107 )  
               b(3) = (  0.707107  0.707107 -0.707107 )  


     PseudoPot. # 1 for Cu read from file:
     /home/bond/Software/QE/qe-7.4.1/pseudo/Cu.pz-d-rrkjus.UPF
     MD5 check sum: fd38ae683e239c95a66f426e1f8e5fc7
     Pseudo is Ultrasoft, Zval = 11.0
     Generated by new atomic code, or converted to UPF format
     Using radial grid of  899 points,  3 beta functions with: 
                l(1) =   2
                l(2) =   2
                l(3) =   1
     Q(r) pseudized with 0 coefficients 


     atomic species   valence    mass     pseudopotential
     Cu               11.00    63.54600     Cu( 1.00)

     48 Sym. Ops., with inversion, found



   Cartesian axes

     site n.     atom                  positions (alat units)
         1        Cu     tau(   1) = (   0.0000000   0.0000000   0.0000000  )

     number of k points=   408  Methfessel-Paxton smearing, width (Ry)=  0.0200

     Number of k-points >= 100: set verbosity='high' to print them.

     Dense  grid:     7631 G-vectors     FFT dimensions: (  27,  27,  27)

     Smooth grid:     2733 G-vectors     FFT dimensions: (  20,  20,  20)

     Estimated max dynamical RAM per process >      20.65 MB

     Estimated total dynamical RAM >      41.31 MB

     Initial potential from superposition of free atoms

     starting charge      10.9997, renormalised to      11.0000
     Starting wfcs are    6 randomized atomic wfcs +    4 random wfcs

     total cpu time spent up to now is        1.2 secs

     Self-consistent Calculation

     iteration #  1     ecut=    40.00 Ry     beta= 0.70
     Davidson diagonalization with overlap
     ethr =  1.00E-02,  avg # of iterations =  5.5

     total cpu time spent up to now is        4.1 secs

     total energy              =     -87.72698930 Ry
     estimated scf accuracy    <       0.24656798 Ry

     iteration #  2     ecut=    40.00 Ry     beta= 0.70
     Davidson diagonalization with overlap
     ethr =  2.24E-03,  avg # of iterations =  2.0

     total cpu time spent up to now is        5.8 secs

     total energy              =     -87.80988182 Ry
     estimated scf accuracy    <       0.20605977 Ry

     iteration #  3     ecut=    40.00 Ry     beta= 0.70
     Davidson diagonalization with overlap
     ethr =  1.87E-03,  avg # of iterations =  1.0

     total cpu time spent up to now is        7.1 secs

     total energy              =     -87.84229802 Ry
     estimated scf accuracy    <       0.00116629 Ry

     iteration #  4     ecut=    40.00 Ry     beta= 0.70
     Davidson diagonalization with overlap
     ethr =  1.06E-05,  avg # of iterations =  2.7

     total cpu time spent up to now is        9.1 secs

     total energy              =     -87.84272358 Ry
     estimated scf accuracy    <       0.00003359 Ry

     iteration #  5     ecut=    40.00 Ry     beta= 0.70
     Davidson diagonalization with overlap
     ethr =  3.05E-07,  avg # of iterations =  1.4

     total cpu time spent up to now is       10.4 secs

     total energy              =     -87.84272035 Ry
     estimated scf accuracy    <       0.00001021 Ry

     iteration #  6     ecut=    40.00 Ry     beta= 0.70
     Davidson diagonalization with overlap
     ethr =  9.28E-08,  avg # of iterations =  1.0

     total cpu time spent up to now is       11.7 secs

     End of self-consistent calculation

     Number of k-points >= 100: set verbosity='high' to print the bands.

     the Fermi energy is    13.9277 ev

!    total energy              =     -87.84272216 Ry
     estimated scf accuracy    <       0.00000001 Ry
     smearing contrib. (-TS)   =       0.00003790 Ry
     internal energy E=F+TS    =     -87.84276006 Ry

     The total energy is F=E-TS. E is the sum of the following terms:
     one-electron contribution =     -11.60333051 Ry
     hartree contribution      =      19.34602006 Ry
     xc contribution           =     -14.03801975 Ry
     ewald contribution        =     -81.54742986 Ry

     convergence has been achieved in   6 iterations


     Computing stress (Cartesian axis) and pressure

          total   stress  (Ry/bohr**3)                   (kbar)     P=      -65.67
  -0.00044641  -0.00000000  -0.00000000          -65.67       -0.00       -0.00
  -0.00000000  -0.00044641  -0.00000000           -0.00      -65.67       -0.00
  -0.00000000  -0.00000000  -0.00044641           -0.00       -0.00      -65.67


     BFGS Geometry Optimization
     Energy error            =      1.2E-03 Ry
     Gradient error          =      0.0E+00 Ry/Bohr
     Cell gradient error     =      6.6E+01 kbar

     number of scf cycles    =   1
     number of bfgs steps    =   0

     enthalpy           new  =     -87.8427221596 Ry

     new trust radius        =       0.0198029927 bohr
     new conv_thr            =       0.0000001000 Ry

     new unit-cell volume =     76.10649 a.u.^3 (    11.27782 Ang^3 )
     density =      9.35647 g/cm^3

CELL_PARAMETERS (angstrom)
  -0.000000000   1.779911326   1.779911326
   1.779911326  -0.000000000   1.779911326
   1.779911326   1.779911326  -0.000000000

ATOMIC_POSITIONS (angstrom)
Cu               0.0000000000        0.0000000000        0.0000000000    0   0   0


     Message from routine punch:
     Nothing written, as per user request (disk_io='none')
     NEW-OLD atomic charge density approx. for the potential
     New effective cutoffs (rho, wfc):  324.53   40.90

     total cpu time spent up to now is       12.3 secs

     Self-consistent Calculation

     iteration #  1     ecut=    40.00 Ry     beta= 0.70
     Davidson diagonalization with overlap
     ethr =  1.00E-06,  avg # of iterations =  4.0

     total cpu time spent up to now is       14.9 secs

     total energy              =     -87.84341182 Ry
     estimated scf accuracy    <       0.00001834 Ry

     iteration #  2     ecut=    40.00 Ry     beta= 0.70
     Davidson diagonalization with overlap
     ethr =  1.67E-07,  avg # of iterations =  1.9

     total cpu time spent up to now is       16.3 secs

     total energy              =     -87.84341582 Ry
     estimated scf accuracy    <       0.00001191 Ry

     iteration #  3     ecut=    40.00 Ry     beta= 0.70
     Davidson diagonalization with overlap
     ethr =  1.08E-07,  avg # of iterations =  1.0

     total cpu time spent up to now is       17.6 secs

     total energy              =     -87.84341834 Ry
     estimated scf accuracy    <       0.00000013 Ry

     iteration #  4     ecut=    40.00 Ry     beta= 0.70
     Davidson diagonalization with overlap
     ethr =  1.15E-09,  avg # of iterations =  1.5

     total cpu time spent up to now is       19.0 secs

     End of self-consistent calculation

     Number of k-points >= 100: set verbosity='high' to print the bands.

     the Fermi energy is    14.5832 ev

!    total energy              =     -87.84341836 Ry
     estimated scf accuracy    <          2.3E-10 Ry
     smearing contrib. (-TS)   =       0.00004716 Ry
     internal energy E=F+TS    =     -87.84346552 Ry

     The total energy is F=E-TS. E is the sum of the following terms:
     one-electron contribution =     -10.19152381 Ry
     hartree contribution      =      18.87256405 Ry
     xc contribution           =     -14.05670433 Ry
     ewald contribution        =     -82.46780143 Ry

     convergence has been achieved in   4 iterations


     Computing stress (Cartesian axis) and pressure

          total   stress  (Ry/bohr**3)                   (kbar)     P=      -12.78
  -0.00008689  -0.00000000   0.00000000          -12.78       -0.00        0.00
   0.00000000  -0.00008689   0.00000000            0.00      -12.78        0.00
   0.00000000   0.00000000  -0.00008689            0.00        0.00      -12.78

     Energy error            =      7.0E-04 Ry
     Gradient error          =      0.0E+00 Ry/Bohr
     Cell gradient error     =      1.3E+01 kbar

     number of scf cycles    =   2
     number of bfgs steps    =   1

     enthalpy           old  =     -87.8427221596 Ry
     enthalpy           new  =     -87.8434183601 Ry

     CASE: enthalpy          _new < enthalpy          _old

     new trust radius        =       0.0046287063 bohr
     new conv_thr            =       0.0000000010 Ry

     new unit-cell volume =     75.50239 a.u.^3 (    11.18830 Ang^3 )
     density =      9.43134 g/cm^3

CELL_PARAMETERS (angstrom)
  -0.000000000   1.775189422   1.775189422
   1.775189422  -0.000000000   1.775189422
   1.775189422   1.775189422  -0.000000000

ATOMIC_POSITIONS (angstrom)
Cu               0.0000000000        0.0000000000        0.0000000000    0   0   0


     Message from routine punch:
     Nothing written, as per user request (disk_io='none')
     NEW-OLD atomic charge density approx. for the potential
     New effective cutoffs (rho, wfc):  326.25   41.12

     total cpu time spent up to now is       19.6 secs

     Self-consistent Calculation

     iteration #  1     ecut=    40.00 Ry     beta= 0.70
     Davidson diagonalization with overlap
     ethr =  1.00E-06,  avg # of iterations =  3.0

     Threshold (ethr) on eigenvalues was too large:
     Diagonalizing with lowered threshold

     Davidson diagonalization with overlap
     ethr =  8.12E-09,  avg # of iterations =  1.3

     total cpu time spent up to now is       23.3 secs

     total energy              =     -87.84343681 Ry
     estimated scf accuracy    <       0.00000093 Ry

     iteration #  2     ecut=    40.00 Ry     beta= 0.70
     Davidson diagonalization with overlap
     ethr =  8.46E-09,  avg # of iterations =  2.0

     total cpu time spent up to now is       24.8 secs

     total energy              =     -87.84343700 Ry
     estimated scf accuracy    <       0.00000059 Ry

     iteration #  3     ecut=    40.00 Ry     beta= 0.70
     Davidson diagonalization with overlap
     ethr =  5.40E-09,  avg # of iterations =  1.0

     total cpu time spent up to now is       26.1 secs

     total energy              =     -87.84343713 Ry
     estimated scf accuracy    <          7.1E-09 Ry

     iteration #  4     ecut=    40.00 Ry     beta= 0.70
     Davidson diagonalization with overlap
     ethr =  6.48E-11,  avg # of iterations =  1.1

     total cpu time spent up to now is       27.4 secs

     End of self-consistent calculation

     Number of k-points >= 100: set verbosity='high' to print the bands.

     the Fermi energy is    14.7419 ev

!    total energy              =     -87.84343713 Ry
     estimated scf accuracy    <          1.7E-11 Ry
     smearing contrib. (-TS)   =       0.00004885 Ry
     internal energy E=F+TS    =     -87.84348597 Ry

     The total energy is F=E-TS. E is the sum of the following terms:
     one-electron contribution =      -9.85602084 Ry
     hartree contribution      =      18.76098961 Ry
     xc contribution           =     -14.06129361 Ry
     ewald contribution        =     -82.68716113 Ry

     convergence has been achieved in   4 iterations


     Computing stress (Cartesian axis) and pressure

          total   stress  (Ry/bohr**3)                   (kbar)     P=        0.82
   0.00000559   0.00000000   0.00000000            0.82        0.00        0.00
   0.00000000   0.00000559   0.00000000            0.00        0.82        0.00
   0.00000000   0.00000000   0.00000559            0.00        0.00        0.82

     Energy error            =      1.9E-05 Ry
     Gradient error          =      0.0E+00 Ry/Bohr
     Cell gradient error     =      8.2E-01 kbar

     number of scf cycles    =   3
     number of bfgs steps    =   2

     enthalpy           old  =     -87.8434183601 Ry
     enthalpy           new  =     -87.8434371264 Ry

     CASE: enthalpy          _new < enthalpy          _old

     new trust radius        =       0.0002778402 bohr
     new conv_thr            =       0.0000000010 Ry

     new unit-cell volume =     75.53861 a.u.^3 (    11.19367 Ang^3 )
     density =      9.42681 g/cm^3

CELL_PARAMETERS (angstrom)
  -0.000000000   1.775473233   1.775473233
   1.775473233  -0.000000000   1.775473233
   1.775473233   1.775473233  -0.000000000

ATOMIC_POSITIONS (angstrom)
Cu               0.0000000000        0.0000000000        0.0000000000    0   0   0


     Message from routine punch:
     Nothing written, as per user request (disk_io='none')
     NEW-OLD atomic charge density approx. for the potential
     New effective cutoffs (rho, wfc):  326.15   41.11

     total cpu time spent up to now is       27.9 secs

     Self-consistent Calculation

     iteration #  1     ecut=    40.00 Ry     beta= 0.70
     Davidson diagonalization with overlap
     ethr =  1.00E-06,  avg # of iterations =  2.0

     Threshold (ethr) on eigenvalues was too large:
     Diagonalizing with lowered threshold

     Davidson diagonalization with overlap
     ethr =  3.27E-11,  avg # of iterations =  2.1

     total cpu time spent up to now is       31.3 secs

     total energy              =     -87.84343724 Ry
     estimated scf accuracy    <          3.8E-09 Ry

     iteration #  2     ecut=    40.00 Ry     beta= 0.70
     Davidson diagonalization with overlap
     ethr =  3.43E-11,  avg # of iterations =  2.0

     total cpu time spent up to now is       32.9 secs

     total energy              =     -87.84343724 Ry
     estimated scf accuracy    <          2.5E-09 Ry

     iteration #  3     ecut=    40.00 Ry     beta= 0.70
     Davidson diagonalization with overlap
     ethr =  2.23E-11,  avg # of iterations =  1.0

     total cpu time spent up to now is       34.4 secs

     End of self-consistent calculation

     Number of k-points >= 100: set verbosity='high' to print the bands.

     the Fermi energy is    14.7323 ev

!    total energy              =     -87.84343724 Ry
     estimated scf accuracy    <          2.5E-11 Ry
     smearing contrib. (-TS)   =       0.00004875 Ry
     internal energy E=F+TS    =     -87.84348599 Ry

     The total energy is F=E-TS. E is the sum of the following terms:
     one-electron contribution =      -9.87624817 Ry
     hartree contribution      =      18.76772660 Ry
     xc contribution           =     -14.06102092 Ry
     ewald contribution        =     -82.67394351 Ry

     convergence has been achieved in   3 iterations


     Computing stress (Cartesian axis) and pressure

          total   stress  (Ry/bohr**3)                   (kbar)     P=        0.13
   0.00000088   0.00000000   0.00000000            0.13        0.00        0.00
   0.00000000   0.00000088   0.00000000            0.00        0.13        0.00
   0.00000000   0.00000000   0.00000088            0.00        0.00        0.13

     Energy error            =      1.2E-07 Ry
     Gradient error          =      0.0E+00 Ry/Bohr
     Cell gradient error     =      1.3E-01 kbar

     bfgs converged in   4 scf cycles and   3 bfgs steps
     (criteria: energy <  1.0E-04 Ry, force <  1.0E-03 Ry/Bohr, cell <  5.0E-01 kbar)

     End of BFGS Geometry Optimization

     Final enthalpy           =     -87.8434372432 Ry

     File /home/bond/Work/Lab4/Problem3/Cu_nk_16/pwscf.bfgs deleted, as requested
Begin final coordinates
     new unit-cell volume =     75.53861 a.u.^3 (    11.19367 Ang^3 )
     density =      9.42681 g/cm^3

CELL_PARAMETERS (angstrom)
  -0.000000000   1.775473233   1.775473233
   1.775473233  -0.000000000   1.775473233
   1.775473233   1.775473233  -0.000000000

ATOMIC_POSITIONS (angstrom)
Cu               0.0000000000        0.0000000000        0.0000000000    0   0   0
End final coordinates


     Message from routine punch:
     Nothing written, as per user request (disk_io='none')

     Final scf calculation at the relaxed structure.
     The G-vectors are recalculated for the final unit cell
     Results may differ from those at the preceding step.

     Parallelization info
     --------------------
     sticks:   dense  smooth     PW     G-vecs:    dense   smooth      PW
     Min         249     126     45                 3694     1318     304
     Max         250     127     46                 3697     1319     305
     Sum         499     253     91                 7391     2637     609

     Using Slab Decomposition



     bravais-lattice index     =            0
     lattice parameter (alat)  =       4.8105  a.u.
     unit-cell volume          =      75.5386 (a.u.)^3
     number of atoms/cell      =            1
     number of atomic types    =            1
     number of electrons       =        11.00
     number of Kohn-Sham states=           10
     kinetic-energy cutoff     =      40.0000  Ry
     charge density cutoff     =     320.0000  Ry
     scf convergence threshold =      1.0E-09
     mixing beta               =       0.7000
     number of iterations used =            8  plain     mixing
     press convergence thresh. =      5.0E-01
     Exchange-correlation=  SLA  PZ   NOGX NOGC
                           (   1   1   0   0   0   0   0)

     celldm(1)=   4.810457  celldm(2)=   0.000000  celldm(3)=   0.000000
     celldm(4)=   0.000000  celldm(5)=   0.000000  celldm(6)=   0.000000

     crystal axes: (cart. coord. in units of alat)
               a(1) = (  -0.000000   0.697472   0.697472 )  
               a(2) = (   0.697472  -0.000000   0.697472 )  
               a(3) = (   0.697472   0.697472  -0.000000 )  

     reciprocal axes: (cart. coord. in units 2 pi/alat)
               b(1) = ( -0.716875  0.716875  0.716875 )  
               b(2) = (  0.716875 -0.716875  0.716875 )  
               b(3) = (  0.716875  0.716875 -0.716875 )  


     PseudoPot. # 1 for Cu read from file:
     /home/bond/Software/QE/qe-7.4.1/pseudo/Cu.pz-d-rrkjus.UPF
     MD5 check sum: fd38ae683e239c95a66f426e1f8e5fc7
     Pseudo is Ultrasoft, Zval = 11.0
     Generated by new atomic code, or converted to UPF format
     Using radial grid of  899 points,  3 beta functions with: 
                l(1) =   2
                l(2) =   2
                l(3) =   1
     Q(r) pseudized with 0 coefficients 


     atomic species   valence    mass     pseudopotential
     Cu               11.00    63.54600     Cu( 1.00)

     48 Sym. Ops., with inversion, found



   Cartesian axes

     site n.     atom                  positions (alat units)
         1        Cu     tau(   1) = (   0.0000000   0.0000000   0.0000000  )

     number of k points=   408  Methfessel-Paxton smearing, width (Ry)=  0.0200

     Number of k-points >= 100: set verbosity='high' to print them.

     Dense  grid:     7391 G-vectors     FFT dimensions: (  27,  27,  27)

     Smooth grid:     2637 G-vectors     FFT dimensions: (  20,  20,  20)

     Estimated max dynamical RAM per process >      19.97 MB

     Estimated total dynamical RAM >      39.94 MB

     Initial potential from superposition of free atoms

     starting charge      10.9997, renormalised to      11.0000
     Starting wfcs are    6 randomized atomic wfcs +    4 random wfcs

     total cpu time spent up to now is       35.4 secs

     Self-consistent Calculation

     iteration #  1     ecut=    40.00 Ry     beta= 0.70
     Davidson diagonalization with overlap
     c_bands:  1 eigenvalues not converged
     c_bands:  1 eigenvalues not converged
     c_bands:  1 eigenvalues not converged
     c_bands:  1 eigenvalues not converged
     c_bands:  1 eigenvalues not converged
     c_bands:  1 eigenvalues not converged
     c_bands:  2 eigenvalues not converged
     c_bands:  1 eigenvalues not converged
     c_bands:  1 eigenvalues not converged
     ethr =  1.00E-06,  avg # of iterations = 13.2

     total cpu time spent up to now is       40.4 secs

     total energy              =     -87.73114595 Ry
     estimated scf accuracy    <       0.24407783 Ry

     iteration #  2     ecut=    40.00 Ry     beta= 0.70
     Davidson diagonalization with overlap
     ethr =  2.22E-03,  avg # of iterations =  2.0

     total cpu time spent up to now is       42.0 secs

     total energy              =     -87.81250310 Ry
     estimated scf accuracy    <       0.18985966 Ry

     iteration #  3     ecut=    40.00 Ry     beta= 0.70
     Davidson diagonalization with overlap
     ethr =  1.73E-03,  avg # of iterations =  1.0

     total cpu time spent up to now is       43.6 secs

     total energy              =     -87.84307885 Ry
     estimated scf accuracy    <       0.00090141 Ry

     iteration #  4     ecut=    40.00 Ry     beta= 0.70
     Davidson diagonalization with overlap
     ethr =  8.19E-06,  avg # of iterations =  2.1

     total cpu time spent up to now is       45.4 secs

     total energy              =     -87.84342767 Ry
     estimated scf accuracy    <       0.00002927 Ry

     iteration #  5     ecut=    40.00 Ry     beta= 0.70
     Davidson diagonalization with overlap
     ethr =  2.66E-07,  avg # of iterations =  1.1

     total cpu time spent up to now is       46.7 secs

     total energy              =     -87.84342492 Ry
     estimated scf accuracy    <       0.00000873 Ry

     iteration #  6     ecut=    40.00 Ry     beta= 0.70
     Davidson diagonalization with overlap
     ethr =  7.94E-08,  avg # of iterations =  1.0

     total cpu time spent up to now is       48.0 secs

     total energy              =     -87.84342648 Ry
     estimated scf accuracy    <       0.00000001 Ry

     iteration #  7     ecut=    40.00 Ry     beta= 0.70
     Davidson diagonalization with overlap
     ethr =  9.60E-11,  avg # of iterations =  2.4

     total cpu time spent up to now is       50.0 secs

     End of self-consistent calculation

     Number of k-points >= 100: set verbosity='high' to print the bands.

     the Fermi energy is    14.7324 ev

!    total energy              =     -87.84342648 Ry
     estimated scf accuracy    <          2.1E-10 Ry
     smearing contrib. (-TS)   =       0.00004876 Ry
     internal energy E=F+TS    =     -87.84347524 Ry

     The total energy is F=E-TS. E is the sum of the following terms:
     one-electron contribution =      -9.87619949 Ry
     hartree contribution      =      18.76769370 Ry
     xc contribution           =     -14.06102594 Ry
     ewald contribution        =     -82.67394351 Ry

     convergence has been achieved in   7 iterations


     Computing stress (Cartesian axis) and pressure

          total   stress  (Ry/bohr**3)                   (kbar)     P=       -0.38
  -0.00000256  -0.00000000  -0.00000000           -0.38       -0.00       -0.00
  -0.00000000  -0.00000256  -0.00000000           -0.00       -0.38       -0.00
  -0.00000000  -0.00000000  -0.00000256           -0.00       -0.00       -0.38

     Message from routine punch:
     Nothing written, as per user request (disk_io='none')

     init_run     :      1.55s CPU      1.67s WALL (       2 calls)
     electrons    :     42.01s CPU     45.96s WALL (       5 calls)
     update_pot   :      0.01s CPU      0.01s WALL (       3 calls)
     stress       :      2.72s CPU      2.78s WALL (       5 calls)

     Called by init_run:
     wfcinit      :      1.00s CPU      1.11s WALL (       2 calls)
     potinit      :      0.18s CPU      0.18s WALL (       2 calls)
     hinit0       :      0.32s CPU      0.32s WALL (       2 calls)

     Called by electrons:
     c_bands      :     36.54s CPU     39.99s WALL (      26 calls)
     sum_band     :      5.19s CPU      5.68s WALL (      26 calls)
     v_of_rho     :      0.03s CPU      0.03s WALL (      29 calls)
     newd         :      0.28s CPU      0.28s WALL (      29 calls)
     mix_rho      :      0.01s CPU      0.01s WALL (      26 calls)

     Called by c_bands:
     init_us_2    :      1.22s CPU      1.36s WALL (   24072 calls)
     cegterg      :     34.38s CPU     37.60s WALL (   10608 calls)

     Called by *egterg:
     cdiaghg      :      4.69s CPU      5.14s WALL (   33248 calls)
     h_psi        :     25.36s CPU     27.74s WALL (   36104 calls)
     s_psi        :      0.40s CPU      0.44s WALL (   36104 calls)
     g_psi        :      0.18s CPU      0.19s WALL (   24680 calls)

     Called by h_psi:
     h_psi:calbec :      1.30s CPU      1.43s WALL (   36104 calls)
     vloc_psi     :     23.15s CPU     25.32s WALL (   36104 calls)
     add_vuspsi   :      0.47s CPU      0.51s WALL (   36104 calls)

     General routines
     calbec       :      2.14s CPU      2.32s WALL (   73232 calls)
     fft          :      0.11s CPU      0.11s WALL (     179 calls)
     ffts         :      0.15s CPU      0.15s WALL (      55 calls)
     fftw         :     21.38s CPU     23.40s WALL (  675640 calls)
     interpolate  :      0.15s CPU      0.16s WALL (      29 calls)

     Parallel routines

     PWSCF        :     46.40s CPU     50.55s WALL


   This run was terminated on:  18: 3:46  21Oct2025            

=------------------------------------------------------------------------------=
   JOB DONE.
=------------------------------------------------------------------------------=
