
     Program PWSCF v.7.4.1 starts on  7Oct2025 at 23:55:51 

     This program is part of the open-source Quantum ESPRESSO suite
     for quantum simulation of materials; please cite
         "P. Giannozzi et al., J. Phys.:Condens. Matter 21 395502 (2009);
         "P. Giannozzi et al., J. Phys.:Condens. Matter 29 465901 (2017);
         "P. Giannozzi et al., J. Chem. Phys. 152 154105 (2020);
          URL http://www.quantum-espresso.org", 
     in publications or presentations arising from this work. More details at
     http://www.quantum-espresso.org/quote

     Parallel version (MPI), running on     1 processors

     MPI processes distributed on     1 nodes
     205 MiB available memory on the printing compute node when the environment starts

     Waiting for input...
     Reading input from standard input
Warning: card &CELL ignored
Warning: card / ignored

     Current dimensions of program PWSCF are:
     Max number of different atomic species (ntypx) = 10
     Max number of k-points (npk) =  40000
     Max angular momentum in pseudopotentials (lmaxx) =  4
     Message from routine setup:
     using ibrav=0 with symmetry is DISCOURAGED, use correct ibrav instead

     Subspace diagonalization in iterative solution of the eigenvalue problem:
     a serial algorithm will be used


     G-vector sticks info
     --------------------
     sticks:   dense  smooth     PW     G-vecs:    dense   smooth      PW
     Sum         475     475    151                 6855     6855    1243

     Using Slab Decomposition



     bravais-lattice index     =            0
     lattice parameter (alat)  =       7.5604  a.u.
     unit-cell volume          =     305.5804 (a.u.)^3
     number of atoms/cell      =            2
     number of atomic types    =            1
     number of electrons       =        28.00
     number of Kohn-Sham states=           14
     kinetic-energy cutoff     =      30.0000  Ry
     charge density cutoff     =     120.0000  Ry
     scf convergence threshold =      1.0E-07
     mixing beta               =       0.5000
     number of iterations used =            8  plain     mixing
     Exchange-correlation=  SLA  PZ   NOGX NOGC
                           (   1   1   0   0   0   0   0)

     celldm(1)=   7.560435  celldm(2)=   0.000000  celldm(3)=   0.000000
     celldm(4)=   0.000000  celldm(5)=   0.000000  celldm(6)=   0.000000

     crystal axes: (cart. coord. in units of alat)
               a(1) = (   0.000000   0.707107   0.707107 )  
               a(2) = (   0.707107   0.000000   0.707107 )  
               a(3) = (   0.707107   0.707107   0.000000 )  

     reciprocal axes: (cart. coord. in units 2 pi/alat)
               b(1) = ( -0.707107  0.707107  0.707107 )  
               b(2) = (  0.707107 -0.707107  0.707107 )  
               b(3) = (  0.707107  0.707107 -0.707107 )  


     PseudoPot. # 1 for Ge read from file:
     /home/bond/Software/QE/qe-7.4.1/pseudo/ge_lda_v1.4.uspp.F.UPF
     MD5 check sum: bf9d52b59cc8a669818bb2b52e0c2ba0
     Pseudo is Ultrasoft + core correction, Zval = 14.0
     Generated by new atomic code, or converted to UPF format
     Using radial grid of  873 points,  6 beta functions with: 
                l(1) =   0
                l(2) =   0
                l(3) =   1
                l(4) =   1
                l(5) =   2
                l(6) =   2
     Q(r) pseudized with  8 coefficients,  rinner =    1.400   1.400   1.400
                                                       1.400   1.400

     atomic species   valence    mass     pseudopotential
     Ge               14.00    72.63000     Ge( 1.00)

     48 Sym. Ops., with inversion, found (24 have fractional translation)



   Cartesian axes

     site n.     atom                  positions (alat units)
         1        Ge     tau(   1) = (   0.0000000   0.0000000   0.0000000  )
         2        Ge     tau(   2) = (   0.3535534   0.3535534   0.3535534  )

     number of k points=    35
                       cart. coord. in units 2pi/alat
        k(    1) = (   0.0000000   0.0000000   0.0000000), wk =   0.0027435
        k(    2) = (   0.0785674   0.0785674  -0.0785674), wk =   0.0219479
        k(    3) = (   0.1571348   0.1571348  -0.1571348), wk =   0.0219479
        k(    4) = (   0.2357023   0.2357023  -0.2357023), wk =   0.0219479
        k(    5) = (   0.3142697   0.3142697  -0.3142697), wk =   0.0219479
        k(    6) = (   0.1571348   0.0000000   0.0000000), wk =   0.0164609
        k(    7) = (   0.2357023   0.0785674  -0.0785674), wk =   0.0658436
        k(    8) = (   0.3142697   0.1571348  -0.1571348), wk =   0.0658436
        k(    9) = (   0.3928371   0.2357023  -0.2357023), wk =   0.0658436
        k(   10) = (  -0.2357023  -0.3928371   0.3928371), wk =   0.0658436
        k(   11) = (  -0.1571348  -0.3142697   0.3142697), wk =   0.0658436
        k(   12) = (  -0.0785674  -0.2357023   0.2357023), wk =   0.0658436
        k(   13) = (  -0.0000000  -0.1571348   0.1571348), wk =   0.0329218
        k(   14) = (   0.3142697   0.0000000   0.0000000), wk =   0.0164609
        k(   15) = (   0.3928371   0.0785674  -0.0785674), wk =   0.0658436
        k(   16) = (   0.4714045   0.1571348  -0.1571348), wk =   0.0658436
        k(   17) = (  -0.1571348  -0.4714045   0.4714045), wk =   0.0658436
        k(   18) = (  -0.0785674  -0.3928371   0.3928371), wk =   0.0658436
        k(   19) = (   0.0000000  -0.3142697   0.3142697), wk =   0.0329218
        k(   20) = (   0.4714045   0.0000000   0.0000000), wk =   0.0164609
        k(   21) = (   0.5499719   0.0785674  -0.0785674), wk =   0.0658436
        k(   22) = (  -0.0785674  -0.5499719   0.5499719), wk =   0.0658436
        k(   23) = (  -0.0000000  -0.4714045   0.4714045), wk =   0.0329218
        k(   24) = (   0.6285394   0.0000000   0.0000000), wk =   0.0164609
        k(   25) = (   0.0000000  -0.6285394   0.6285394), wk =   0.0329218
        k(   26) = (   0.3142697   0.1571348   0.0000000), wk =   0.0658436
        k(   27) = (   0.3928371   0.2357023  -0.0785674), wk =   0.1316872
        k(   28) = (  -0.2357023  -0.3928371   0.5499719), wk =   0.1316872
        k(   29) = (   0.4714045   0.1571348   0.0000000), wk =   0.0658436
        k(   30) = (  -0.1571348  -0.4714045   0.6285394), wk =   0.1316872
        k(   31) = (  -0.0785674  -0.3928371   0.5499719), wk =   0.1316872
        k(   32) = (   0.0000000  -0.3142697   0.4714045), wk =   0.0658436
        k(   33) = (  -0.0785674  -0.5499719   0.7071068), wk =   0.0658436
        k(   34) = (  -0.0000000  -0.4714045   0.6285394), wk =   0.0658436
        k(   35) = (  -0.0785674  -0.3928371   0.7071068), wk =   0.0658436

     Dense  grid:     6855 G-vectors     FFT dimensions: (  32,  32,  32)

     Estimated max dynamical RAM per process >      33.99 MB

     Check: negative core charge=   -0.000126

     Initial potential from superposition of free atoms

     starting charge      27.9986, renormalised to      28.0000
     Starting wfcs are   18 randomized atomic wfcs

     total cpu time spent up to now is        1.2 secs

     Self-consistent Calculation

     iteration #  1     ecut=    30.00 Ry     beta= 0.50
     Davidson diagonalization with overlap
     ethr =  1.00E-02,  avg # of iterations =  1.7

     Threshold (ethr) on eigenvalues was too large:
     Diagonalizing with lowered threshold

     Davidson diagonalization with overlap
     ethr =  1.20E-04,  avg # of iterations =  2.0

     total cpu time spent up to now is        2.7 secs

     total energy              =    -426.13950047 Ry
     estimated scf accuracy    <       0.03575447 Ry

     iteration #  2     ecut=    30.00 Ry     beta= 0.50
     Davidson diagonalization with overlap
     ethr =  1.28E-04,  avg # of iterations =  1.0

     total cpu time spent up to now is        3.4 secs

     total energy              =    -426.13833852 Ry
     estimated scf accuracy    <       0.00609985 Ry

     iteration #  3     ecut=    30.00 Ry     beta= 0.50
     Davidson diagonalization with overlap
     ethr =  2.18E-05,  avg # of iterations =  2.0

     total cpu time spent up to now is        4.2 secs

     total energy              =    -426.13882361 Ry
     estimated scf accuracy    <       0.00006752 Ry

     iteration #  4     ecut=    30.00 Ry     beta= 0.50
     Davidson diagonalization with overlap
     ethr =  2.41E-07,  avg # of iterations =  3.8

     total cpu time spent up to now is        5.1 secs

     total energy              =    -426.13884525 Ry
     estimated scf accuracy    <       0.00000648 Ry

     iteration #  5     ecut=    30.00 Ry     beta= 0.50
     Davidson diagonalization with overlap
     ethr =  2.32E-08,  avg # of iterations =  2.3

     total cpu time spent up to now is        6.1 secs

     total energy              =    -426.13884634 Ry
     estimated scf accuracy    <       0.00000010 Ry

     iteration #  6     ecut=    30.00 Ry     beta= 0.50
     Davidson diagonalization with overlap
     ethr =  3.58E-10,  avg # of iterations =  4.9

     total cpu time spent up to now is        7.9 secs

     End of self-consistent calculation

          k = 0.0000 0.0000 0.0000 (   869 PWs)   bands (ev):

   -16.8281 -16.8281 -16.8281 -16.8025 -16.8025 -16.6013 -16.6013 -16.6013
   -16.5782 -16.5782  -4.6675   7.9542   8.1486   8.1486

          k = 0.0786 0.0786-0.0786 (   869 PWs)   bands (ev):

   -16.8383 -16.8383 -16.8329 -16.7894 -16.7894 -16.6066 -16.6066 -16.5967
   -16.5722 -16.5722  -4.5172   5.9857   7.8728   7.8728

          k = 0.1571 0.1571-0.1571 (   860 PWs)   bands (ev):

   -16.8482 -16.8482 -16.8239 -16.7726 -16.7726 -16.6129 -16.6129 -16.6029
   -16.5617 -16.5617  -4.0773   3.8699   7.3812   7.3812

          k = 0.2357 0.2357-0.2357 (   854 PWs)   bands (ev):

   -16.8528 -16.8528 -16.8182 -16.7606 -16.7606 -16.6199 -16.6199 -16.6099
   -16.5543 -16.5543  -3.4013   2.0077   6.9836   6.9836

          k = 0.3143 0.3143-0.3143 (   847 PWs)   bands (ev):

   -16.8508 -16.8508 -16.8159 -16.7557 -16.7557 -16.6234 -16.6234 -16.6086
   -16.5492 -16.5492  -2.7149   0.7126   6.7730   6.7730

          k = 0.1571 0.0000 0.0000 (   869 PWs)   bands (ev):

   -16.8420 -16.8410 -16.8410 -16.7949 -16.7720 -16.6249 -16.5889 -16.5889
   -16.5850 -16.5636  -4.4665   5.9282   7.4125   7.4125

          k = 0.2357 0.0786-0.0786 (   858 PWs)   bands (ev):

   -16.8510 -16.8424 -16.8295 -16.7783 -16.7588 -16.6416 -16.5990 -16.5867
   -16.5707 -16.5590  -4.1206   4.3391   6.8671   6.8930

          k = 0.3143 0.1571-0.1571 (   854 PWs)   bands (ev):

   -16.8592 -16.8479 -16.8186 -16.7658 -16.7464 -16.6493 -16.6114 -16.5977
   -16.5595 -16.5485  -3.5124   2.5278   6.2593   6.5413

          k = 0.3928 0.2357-0.2357 (   849 PWs)   bands (ev):

   -16.8614 -16.8519 -16.8085 -16.7535 -16.7443 -16.6447 -16.6212 -16.6103
   -16.5496 -16.5419  -2.7774   1.0458   5.7924   6.4256

          k =-0.2357-0.3928 0.3928 (   842 PWs)   bands (ev):

   -16.8601 -16.8534 -16.8026 -16.7492 -16.7454 -16.6302 -16.6283 -16.6160
   -16.5447 -16.5400  -2.4635   0.5422   5.5482   6.5542

          k =-0.1571-0.3143 0.3143 (   851 PWs)   bands (ev):

   -16.8584 -16.8563 -16.8061 -16.7601 -16.7440 -16.6371 -16.6244 -16.6121
   -16.5468 -16.5468  -3.0208   1.4834   5.5665   6.9013

          k =-0.0786-0.2357 0.2357 (   849 PWs)   bands (ev):

   -16.8540 -16.8455 -16.8151 -16.7692 -16.7516 -16.6312 -16.6203 -16.5935
   -16.5615 -16.5500  -3.7429   3.1093   5.8958   7.3958

          k =-0.0000-0.1571 0.1571 (   863 PWs)   bands (ev):

   -16.8450 -16.8382 -16.8285 -16.7848 -16.7712 -16.6222 -16.6133 -16.5806
   -16.5806 -16.5613  -4.2693   4.8257   6.6734   7.8506

          k = 0.3143 0.0000 0.0000 (   849 PWs)   bands (ev):

   -16.8433 -16.8421 -16.8421 -16.7663 -16.7407 -16.6667 -16.6006 -16.5667
   -16.5667 -16.5622  -3.8687   3.8615   6.3451   6.3451

          k = 0.3928 0.0786-0.0786 (   850 PWs)   bands (ev):

   -16.8598 -16.8475 -16.8263 -16.7548 -16.7200 -16.6846 -16.6174 -16.5803
   -16.5560 -16.5488  -3.3404   2.6054   5.6387   5.9705

          k = 0.4714 0.1571-0.1571 (   847 PWs)   bands (ev):

   -16.8694 -16.8542 -16.8058 -16.7382 -16.7138 -16.6862 -16.6308 -16.6019
   -16.5448 -16.5340  -2.6145   1.2655   4.8479   5.8489

          k =-0.1571-0.4714 0.4714 (   841 PWs)   bands (ev):

   -16.8718 -16.8555 -16.7893 -16.7261 -16.7237 -16.6694 -16.6434 -16.6172
   -16.5404 -16.5276  -2.0575   0.4489   4.3287   5.9962

          k =-0.0786-0.3928 0.3928 (   846 PWs)   bands (ev):

   -16.8703 -16.8588 -16.7848 -16.7430 -16.7218 -16.6544 -16.6459 -16.6279
   -16.5396 -16.5311  -2.4110   0.9519   4.2029   6.3862

          k = 0.0000-0.3143 0.3143 (   847 PWs)   bands (ev):

   -16.8619 -16.8609 -16.7937 -16.7595 -16.7328 -16.6473 -16.6306 -16.6115
   -16.5438 -16.5413  -3.1477   2.1099   4.6479   6.9304

          k = 0.4714 0.0000 0.0000 (   837 PWs)   bands (ev):

   -16.8519 -16.8519 -16.8293 -16.7314 -16.7124 -16.6898 -16.6271 -16.5716
   -16.5471 -16.5471  -2.8912   1.8843   5.5462   5.5462

          k = 0.5500 0.0786-0.0786 (   842 PWs)   bands (ev):

   -16.8648 -16.8544 -16.8090 -16.7320 -16.7165 -16.6762 -16.6419 -16.5957
   -16.5401 -16.5325  -2.2074   0.8729   4.8518   5.3718

          k =-0.0786-0.5500 0.5500 (   846 PWs)   bands (ev):

   -16.8757 -16.8567 -16.7871 -16.7242 -16.7046 -16.6816 -16.6614 -16.6187
   -16.5354 -16.5243  -1.5073   0.0439   4.0179   5.4755

          k =-0.0000-0.4714 0.4714 (   856 PWs)   bands (ev):

   -16.8803 -16.8657 -16.7823 -16.7096 -16.7016 -16.6917 -16.6710 -16.6324
   -16.5347 -16.5253  -1.6926   0.2568   3.6825   5.8396

          k = 0.6285 0.0000 0.0000 (   830 PWs)   bands (ev):

   -16.8518 -16.8518 -16.8019 -16.7567 -16.6997 -16.6625 -16.6462 -16.5981
   -16.5294 -16.5294  -1.5673   0.0491   5.1301   5.1301

          k = 0.0000-0.6285 0.6285 (   832 PWs)   bands (ev):

   -16.8613 -16.8564 -16.7817 -16.7678 -16.6786 -16.6746 -16.6367 -16.6227
   -16.5281 -16.5246  -0.8683  -0.6748   4.5863   5.1666

          k = 0.3143 0.1571 0.0000 (   847 PWs)   bands (ev):

   -16.8551 -16.8470 -16.8186 -16.7651 -16.7407 -16.6573 -16.6096 -16.5855
   -16.5612 -16.5502  -3.6849   3.2327   5.6309   6.7885

          k = 0.3928 0.2357-0.0786 (   852 PWs)   bands (ev):

   -16.8643 -16.8583 -16.8016 -16.7544 -16.7279 -16.6669 -16.6218 -16.6104
   -16.5470 -16.5421  -3.0119   1.8316   4.9300   6.3604

          k =-0.2357-0.3928 0.5500 (   843 PWs)   bands (ev):

   -16.8669 -16.8597 -16.7905 -16.7407 -16.7257 -16.6591 -16.6329 -16.6224
   -16.5401 -16.5322  -2.3152   0.6824   4.6541   6.0537

          k = 0.4714 0.1571 0.0000 (   844 PWs)   bands (ev):

   -16.8624 -16.8572 -16.8073 -16.7371 -16.7029 -16.7017 -16.6291 -16.5976
   -16.5400 -16.5388  -2.7374   1.6162   4.9072   5.6006

          k =-0.1571-0.4714 0.6285 (   847 PWs)   bands (ev):

   -16.8723 -16.8653 -16.7854 -16.7237 -16.7071 -16.6924 -16.6471 -16.6201
   -16.5336 -16.5275  -1.9924   0.5976   4.2549   5.3134

          k =-0.0786-0.3928 0.5500 (   846 PWs)   bands (ev):

   -16.8763 -16.8652 -16.7740 -16.7208 -16.6991 -16.6907 -16.6568 -16.6328
   -16.5328 -16.5235  -1.6889   0.2346   3.8952   5.4168

          k = 0.0000-0.3143 0.4714 (   850 PWs)   bands (ev):

   -16.8745 -16.8652 -16.7834 -16.7382 -16.7084 -16.6796 -16.6410 -16.6290
   -16.5360 -16.5299  -2.3061   0.9771   4.0540   5.8399

          k =-0.0786-0.5500 0.7071 (   844 PWs)   bands (ev):

   -16.8648 -16.8627 -16.7836 -16.7478 -16.7014 -16.6627 -16.6609 -16.6196
   -16.5303 -16.5280  -1.4760   0.0143   4.6285   4.8519

          k =-0.0000-0.4714 0.6285 (   845 PWs)   bands (ev):

   -16.8773 -16.8656 -16.7684 -16.7307 -16.6904 -16.6753 -16.6684 -16.6395
   -16.5268 -16.5226  -1.0365  -0.4055   3.9975   4.9334

          k =-0.0786-0.3928 0.7071 (   855 PWs)   bands (ev):

   -16.8780 -16.8744 -16.7596 -16.7231 -16.7077 -16.6764 -16.6721 -16.6442
   -16.5287 -16.5242  -1.2571  -0.1359   4.0243   4.6515

     highest occupied level (ev):     8.1486

!    total energy              =    -426.13884644 Ry
     estimated scf accuracy    <       0.00000003 Ry

     The total energy is the sum of the following terms:
     one-electron contribution =    -278.98241417 Ry
     hartree contribution      =     164.83636361 Ry
     xc contribution           =    -114.49832082 Ry
     ewald contribution        =    -197.49447506 Ry

     convergence has been achieved in   6 iterations

     Forces acting on atoms (cartesian axes, Ry/au):

     atom    1 type  1   force =     0.00000000    0.00000000    0.00000000
     atom    2 type  1   force =     0.00000000    0.00000000    0.00000000

     Total force =     0.000000     Total SCF correction =     0.000000


     Computing stress (Cartesian axis) and pressure

          total   stress  (Ry/bohr**3)                   (kbar)     P=     -160.09
  -0.00108827   0.00000000   0.00000000         -160.09        0.00        0.00
   0.00000000  -0.00108827   0.00000000            0.00     -160.09        0.00
   0.00000000   0.00000000  -0.00108827            0.00        0.00     -160.09

     Message from routine punch:
     Nothing written, as per user request (disk_io='none')

     init_run     :      1.00s CPU      1.03s WALL (       1 calls)
     electrons    :      6.41s CPU      6.71s WALL (       1 calls)
     forces       :      0.09s CPU      0.10s WALL (       1 calls)
     stress       :      0.52s CPU      0.53s WALL (       1 calls)

     Called by init_run:
     wfcinit      :      0.59s CPU      0.60s WALL (       1 calls)
     potinit      :      0.02s CPU      0.02s WALL (       1 calls)
     hinit0       :      0.36s CPU      0.36s WALL (       1 calls)

     Called by electrons:
     c_bands      :      5.15s CPU      5.34s WALL (       7 calls)
     sum_band     :      1.08s CPU      1.13s WALL (       7 calls)
     v_of_rho     :      0.02s CPU      0.02s WALL (       7 calls)
     newd         :      0.18s CPU      0.21s WALL (       7 calls)
     mix_rho      :      0.01s CPU      0.01s WALL (       7 calls)

     Called by c_bands:
     init_us_2    :      0.21s CPU      0.21s WALL (     595 calls)
     cegterg      :      4.70s CPU      4.87s WALL (     245 calls)

     Called by *egterg:
     cdiaghg      :      0.23s CPU      0.25s WALL (     827 calls)
     h_psi        :      4.36s CPU      4.49s WALL (     897 calls)
     s_psi        :      0.11s CPU      0.12s WALL (     897 calls)
     g_psi        :      0.03s CPU      0.03s WALL (     617 calls)

     Called by h_psi:
     h_psi:calbec :      0.15s CPU      0.16s WALL (     897 calls)
     vloc_psi     :      4.05s CPU      4.17s WALL (     897 calls)
     add_vuspsi   :      0.12s CPU      0.13s WALL (     897 calls)

     General routines
     calbec       :      0.29s CPU      0.30s WALL (    1737 calls)
     fft          :      0.16s CPU      0.17s WALL (      37 calls)
     ffts         :      0.00s CPU      0.00s WALL (       7 calls)
     fftw         :      3.89s CPU      4.01s WALL (   22614 calls)

     Parallel routines

     PWSCF        :      8.16s CPU      8.52s WALL


   This run was terminated on:  23:55:59   7Oct2025            

=------------------------------------------------------------------------------=
   JOB DONE.
=------------------------------------------------------------------------------=
