LAMMPS (22 Jul 2025 - Update 1)
Reading data file ...
  orthogonal box = (0 0 0) to (8.1 8.1 8.1)
  1 by 1 by 1 MPI processor grid
  reading atoms ...
  32 atoms
  read_data CPU = 0.002 seconds
Reading eam/alloy potential file /home/bond/Software/LAMMPS/lammps-22Jul2025/potentials/Al_zhou.eam.alloy with DATE: 2007-10-12
WARNING: No fixes with time integration, atoms won't move
For more information see https://docs.lammps.org/err0028 (../verlet.cpp:60)
Neighbor list info ...
  update: every = 1 steps, delay = 0 steps, check = yes
  max neighbors/atom: 2000, page size: 100000
  master list distance cutoff = 12.1025
  ghost atom cutoff = 12.1025
  binsize = 6.05125, bins = 2 2 2
  1 neighbor lists, perpetual/occasional/extra = 1 0 0
  (1) pair eam/alloy, perpetual
      attributes: half, newton on
      pair build: half/bin/atomonly/newton
      stencil: half/bin/3d
      bin: standard
Setting up Verlet run ...
  Unit style    : metal
  Current step  : 0
  Time step     : 0.001
Per MPI rank memory allocation (min/avg/max) = 3.265 | 3.265 | 3.265 Mbytes
   Step         PotEng           Lx             Ly             Lz           Press           Pxx            Pyy            Pzz      
         0  -114.4691       8.1            8.1            8.1            23601.197      23601.197      23601.197      23601.197    
Loop time of 2.264e-06 on 1 procs for 0 steps with 32 atoms

132.5% CPU use with 1 MPI tasks x no OpenMP threads

MPI task timing breakdown:
Section |  min time  |  avg time  |  max time  |%varavg| %total
---------------------------------------------------------------
Pair    | 0          | 0          | 0          |   0.0 |  0.00
Neigh   | 0          | 0          | 0          |   0.0 |  0.00
Comm    | 0          | 0          | 0          |   0.0 |  0.00
Output  | 0          | 0          | 0          |   0.0 |  0.00
Modify  | 0          | 0          | 0          |   0.0 |  0.00
Other   |            | 2.264e-06  |            |       |100.00

Nlocal:             32 ave          32 max          32 min
Histogram: 1 0 0 0 0 0 0 0 0 0
Nghost:           1655 ave        1655 max        1655 min
Histogram: 1 0 0 0 0 0 0 0 0 0
Neighs:           6848 ave        6848 max        6848 min
Histogram: 1 0 0 0 0 0 0 0 0 0

Total # of neighbors = 6848
Ave neighs/atom = 214
Neighbor list builds = 0
Dangerous builds = 0
Setting up cg style minimization ...
  Unit style    : metal
  Current step  : 0
WARNING: Energy due to 1 extra global DOFs will be included in minimizer energies
 (../min.cpp:222)
Per MPI rank memory allocation (min/avg/max) = 4.39 | 4.39 | 4.39 Mbytes
   Step         PotEng           Lx             Ly             Lz           Press           Pxx            Pyy            Pzz      
         0  -114.4691       8.1            8.1            8.1            23601.197      23601.197      23601.197      23601.197    
         9  -114.55996      8.1633098      8.1633098      8.1633098     -0.010539098   -0.010539098   -0.010539098   -0.010539098  
Loop time of 0.00425058 on 1 procs for 9 steps with 32 atoms

99.0% CPU use with 1 MPI tasks x no OpenMP threads

Minimization stats:
  Stopping criterion = energy tolerance
  Energy initial, next-to-last, final = 
     -114.469096633942  -114.559957116922  -114.559957117729
  Force two-norm initial, final = 23.48551 1.0652018e-05
  Force max component initial, final = 23.48551 1.0652018e-05
  Final line search alpha, max atom move = 0.4617279 4.9183341e-06
  Iterations, force evaluations = 9 11

MPI task timing breakdown:
Section |  min time  |  avg time  |  max time  |%varavg| %total
---------------------------------------------------------------
Pair    | 0.0038058  | 0.0038058  | 0.0038058  |   0.0 | 89.54
Neigh   | 0          | 0          | 0          |   0.0 |  0.00
Comm    | 9.5039e-05 | 9.5039e-05 | 9.5039e-05 |   0.0 |  2.24
Output  | 0          | 0          | 0          |   0.0 |  0.00
Modify  | 0          | 0          | 0          |   0.0 |  0.00
Other   |            | 0.0003497  |            |       |  8.23

Nlocal:             32 ave          32 max          32 min
Histogram: 1 0 0 0 0 0 0 0 0 0
Nghost:           1655 ave        1655 max        1655 min
Histogram: 1 0 0 0 0 0 0 0 0 0
Neighs:           6848 ave        6848 max        6848 min
Histogram: 1 0 0 0 0 0 0 0 0 0

Total # of neighbors = 6848
Ave neighs/atom = 214
Neighbor list builds = 0
Dangerous builds = 0
Total energy (eV) = -114.559957117729
Number of atoms = 32
Lattice constant (Angstoms) = 8.16330983125615
Total wall time: 0:00:00
