
     Program PWSCF v.7.4.1 starts on  7Oct2025 at 23:57:13 

     This program is part of the open-source Quantum ESPRESSO suite
     for quantum simulation of materials; please cite
         "P. Giannozzi et al., J. Phys.:Condens. Matter 21 395502 (2009);
         "P. Giannozzi et al., J. Phys.:Condens. Matter 29 465901 (2017);
         "P. Giannozzi et al., J. Chem. Phys. 152 154105 (2020);
          URL http://www.quantum-espresso.org", 
     in publications or presentations arising from this work. More details at
     http://www.quantum-espresso.org/quote

     Parallel version (MPI), running on     1 processors

     MPI processes distributed on     1 nodes
     238 MiB available memory on the printing compute node when the environment starts

     Waiting for input...
     Reading input from standard input
Warning: card &CELL ignored
Warning: card / ignored

     Current dimensions of program PWSCF are:
     Max number of different atomic species (ntypx) = 10
     Max number of k-points (npk) =  40000
     Max angular momentum in pseudopotentials (lmaxx) =  4
     Message from routine setup:
     using ibrav=0 with symmetry is DISCOURAGED, use correct ibrav instead

     Subspace diagonalization in iterative solution of the eigenvalue problem:
     a serial algorithm will be used


     G-vector sticks info
     --------------------
     sticks:   dense  smooth     PW     G-vecs:    dense   smooth      PW
     Sum         163     163     55                 1291     1291     283

     Using Slab Decomposition



     bravais-lattice index     =            0
     lattice parameter (alat)  =       7.5604  a.u.
     unit-cell volume          =     305.5804 (a.u.)^3
     number of atoms/cell      =            2
     number of atomic types    =            1
     number of electrons       =        28.00
     number of Kohn-Sham states=           14
     kinetic-energy cutoff     =      10.0000  Ry
     charge density cutoff     =      40.0000  Ry
     scf convergence threshold =      1.0E-07
     mixing beta               =       0.5000
     number of iterations used =            8  plain     mixing
     Exchange-correlation=  SLA  PZ   NOGX NOGC
                           (   1   1   0   0   0   0   0)

     celldm(1)=   7.560435  celldm(2)=   0.000000  celldm(3)=   0.000000
     celldm(4)=   0.000000  celldm(5)=   0.000000  celldm(6)=   0.000000

     crystal axes: (cart. coord. in units of alat)
               a(1) = (   0.000000   0.707107   0.707107 )  
               a(2) = (   0.707107   0.000000   0.707107 )  
               a(3) = (   0.707107   0.707107   0.000000 )  

     reciprocal axes: (cart. coord. in units 2 pi/alat)
               b(1) = ( -0.707107  0.707107  0.707107 )  
               b(2) = (  0.707107 -0.707107  0.707107 )  
               b(3) = (  0.707107  0.707107 -0.707107 )  


     PseudoPot. # 1 for Ge read from file:
     /home/bond/Software/QE/qe-7.4.1/pseudo/ge_lda_v1.4.uspp.F.UPF
     MD5 check sum: bf9d52b59cc8a669818bb2b52e0c2ba0
     Pseudo is Ultrasoft + core correction, Zval = 14.0
     Generated by new atomic code, or converted to UPF format
     Using radial grid of  873 points,  6 beta functions with: 
                l(1) =   0
                l(2) =   0
                l(3) =   1
                l(4) =   1
                l(5) =   2
                l(6) =   2
     Q(r) pseudized with  8 coefficients,  rinner =    1.400   1.400   1.400
                                                       1.400   1.400

     atomic species   valence    mass     pseudopotential
     Ge               14.00    72.63000     Ge( 1.00)

     48 Sym. Ops., with inversion, found (24 have fractional translation)



   Cartesian axes

     site n.     atom                  positions (alat units)
         1        Ge     tau(   1) = (   0.0000000   0.0000000   0.0000000  )
         2        Ge     tau(   2) = (   0.3535534   0.3535534   0.3535534  )

     number of k points=     8
                       cart. coord. in units 2pi/alat
        k(    1) = (   0.0000000   0.0000000   0.0000000), wk =   0.0312500
        k(    2) = (   0.1767767   0.1767767  -0.1767767), wk =   0.2500000
        k(    3) = (  -0.3535534  -0.3535534   0.3535534), wk =   0.1250000
        k(    4) = (   0.3535534   0.0000000   0.0000000), wk =   0.1875000
        k(    5) = (  -0.1767767  -0.5303301   0.5303301), wk =   0.7500000
        k(    6) = (   0.0000000  -0.3535534   0.3535534), wk =   0.3750000
        k(    7) = (  -0.7071068   0.0000000   0.0000000), wk =   0.0937500
        k(    8) = (  -0.7071068   0.3535534   0.0000000), wk =   0.1875000

     Dense  grid:     1291 G-vectors     FFT dimensions: (  16,  16,  16)

     Estimated max dynamical RAM per process >       5.69 MB

     Check: negative core charge=   -0.017081

     Initial potential from superposition of free atoms

     starting charge      27.9986, renormalised to      28.0000

     negative rho (up, down):  3.605E-01 0.000E+00
     Starting wfcs are   18 randomized atomic wfcs

     total cpu time spent up to now is        0.4 secs

     Self-consistent Calculation

     iteration #  1     ecut=    10.00 Ry     beta= 0.50
     Davidson diagonalization with overlap
     ethr =  1.00E-02,  avg # of iterations =  2.1

     negative rho (up, down):  5.688E-02 0.000E+00

     total cpu time spent up to now is        0.4 secs

     total energy              =    -351.91838782 Ry
     estimated scf accuracy    <      57.01325781 Ry

     iteration #  2     ecut=    10.00 Ry     beta= 0.50
     Davidson diagonalization with overlap
     ethr =  1.00E-02,  avg # of iterations =  5.5

     negative rho (up, down):  9.527E-02 0.000E+00

     total cpu time spent up to now is        0.5 secs

     total energy              =    -365.85412226 Ry
     estimated scf accuracy    <       1.91014103 Ry

     iteration #  3     ecut=    10.00 Ry     beta= 0.50
     Davidson diagonalization with overlap
     ethr =  6.82E-03,  avg # of iterations =  1.8

     negative rho (up, down):  1.200E-01 0.000E+00

     total cpu time spent up to now is        0.5 secs

     total energy              =    -365.88362871 Ry
     estimated scf accuracy    <       0.28360400 Ry

     iteration #  4     ecut=    10.00 Ry     beta= 0.50
     Davidson diagonalization with overlap
     ethr =  1.01E-03,  avg # of iterations =  3.0

     negative rho (up, down):  1.101E-01 0.000E+00

     total cpu time spent up to now is        0.6 secs

     total energy              =    -366.30436397 Ry
     estimated scf accuracy    <       0.00867312 Ry

     iteration #  5     ecut=    10.00 Ry     beta= 0.50
     Davidson diagonalization with overlap
     ethr =  3.10E-05,  avg # of iterations =  2.9

     negative rho (up, down):  1.087E-01 0.000E+00

     total cpu time spent up to now is        0.6 secs

     total energy              =    -366.30611166 Ry
     estimated scf accuracy    <       0.00019244 Ry

     iteration #  6     ecut=    10.00 Ry     beta= 0.50
     Davidson diagonalization with overlap
     ethr =  6.87E-07,  avg # of iterations =  3.2

     negative rho (up, down):  1.065E-01 0.000E+00

     total cpu time spent up to now is        0.7 secs

     total energy              =    -366.30617228 Ry
     estimated scf accuracy    <       0.00002617 Ry

     iteration #  7     ecut=    10.00 Ry     beta= 0.50
     Davidson diagonalization with overlap
     ethr =  9.35E-08,  avg # of iterations =  3.1

     negative rho (up, down):  1.070E-01 0.000E+00

     total cpu time spent up to now is        0.7 secs

     total energy              =    -366.30617827 Ry
     estimated scf accuracy    <       0.00000849 Ry

     iteration #  8     ecut=    10.00 Ry     beta= 0.50
     Davidson diagonalization with overlap
     ethr =  3.03E-08,  avg # of iterations =  2.2

     negative rho (up, down):  1.071E-01 0.000E+00

     total cpu time spent up to now is        0.8 secs

     total energy              =    -366.30617939 Ry
     estimated scf accuracy    <       0.00000011 Ry

     iteration #  9     ecut=    10.00 Ry     beta= 0.50
     Davidson diagonalization with overlap
     ethr =  4.07E-10,  avg # of iterations =  5.8

     negative rho (up, down):  1.071E-01 0.000E+00

     total cpu time spent up to now is        0.8 secs

     total energy              =    -366.30617964 Ry
     estimated scf accuracy    <       0.00000014 Ry

     iteration # 10     ecut=    10.00 Ry     beta= 0.50
     Davidson diagonalization with overlap
     ethr =  4.07E-10,  avg # of iterations =  2.1

     negative rho (up, down):  1.071E-01 0.000E+00

     total cpu time spent up to now is        0.9 secs

     End of self-consistent calculation

          k = 0.0000 0.0000 0.0000 (   169 PWs)   bands (ev):

   -32.0022 -32.0022 -31.3177 -31.3177 -31.3177 -31.0515 -31.0515 -17.4119
   -17.4119 -17.4119 -11.3059  -4.2903   2.0635   2.0635

          k = 0.1768 0.1768-0.1768 (   162 PWs)   bands (ev):

   -34.1568 -34.1568 -30.4249 -26.1551 -26.1551 -17.0382 -17.0382 -14.4055
   -14.4055 -12.8535 -10.7854  -5.5761   1.5728   1.5728

          k =-0.3536-0.3536 0.3536 (   168 PWs)   bands (ev):

   -40.9295 -40.9295 -38.7005 -27.9895 -27.9895 -20.6523 -20.6523 -16.5836
   -14.3726 -14.3726  -9.9950  -7.0500   1.2142   1.2142

          k = 0.3536 0.0000 0.0000 (   165 PWs)   bands (ev):

   -35.6646 -35.6646 -35.5999 -31.5568 -27.5083 -22.2067 -22.1432 -13.0641
   -11.7714 -11.7714 -10.5962  -5.9510   0.9311   0.9311

          k =-0.1768-0.5303 0.5303 (   164 PWs)   bands (ev):

   -38.8662 -34.1603 -32.7935 -32.5010 -24.9116 -19.3507 -17.9169 -17.1404
   -15.6664  -9.6241  -8.8564  -7.4669  -0.0233   0.6548

          k = 0.0000-0.3536 0.3536 (   164 PWs)   bands (ev):

   -38.6972 -37.2221 -33.1612 -24.3229 -21.3553 -19.5143 -19.0441 -18.2055
   -15.1247 -14.4629 -10.0211  -6.9063  -0.0520   1.1800

          k =-0.7071 0.0000 0.0000 (   150 PWs)   bands (ev):

   -25.8587 -25.8587 -20.4482 -20.4482 -17.8608 -17.8608  -8.6198  -8.6198
    -5.2403  -5.2403  -4.4419  -4.4419   0.2950   0.2950

          k =-0.7071 0.3536 0.0000 (   156 PWs)   bands (ev):

   -32.8049 -32.8049 -20.5838 -20.5838 -19.4928 -19.4928 -16.5815 -16.5815
    -8.6020  -8.6020  -4.7251  -4.7251  -0.0324  -0.0324

     highest occupied level (ev):     2.0635

!    total energy              =    -366.30617967 Ry
     estimated scf accuracy    <          1.7E-09 Ry

     The total energy is the sum of the following terms:
     one-electron contribution =    -158.40133424 Ry
     hartree contribution      =      89.30491279 Ry
     xc contribution           =     -99.71528318 Ry
     ewald contribution        =    -197.49447505 Ry

     convergence has been achieved in  10 iterations

     negative rho (up, down):  1.071E-01 0.000E+00

     Forces acting on atoms (cartesian axes, Ry/au):

     atom    1 type  1   force =     0.00000000   -0.00000000    0.00000000
     atom    2 type  1   force =     0.00000000    0.00000000    0.00000000

     Total force =     0.000000     Total SCF correction =     0.000000


     Computing stress (Cartesian axis) and pressure


     negative rho (up, down):  1.071E-01 0.000E+00
          total   stress  (Ry/bohr**3)                   (kbar)     P=   -74811.39
  -0.50855748   0.00000000   0.00000000       -74811.39        0.00        0.00
   0.00000000  -0.50855748   0.00000000            0.00   -74811.39        0.00
   0.00000000   0.00000000  -0.50855748            0.00        0.00   -74811.39

     Message from routine punch:
     Nothing written, as per user request (disk_io='none')

     init_run     :      0.18s CPU      0.18s WALL (       1 calls)
     electrons    :      0.46s CPU      0.49s WALL (       1 calls)
     forces       :      0.01s CPU      0.01s WALL (       1 calls)
     stress       :      0.08s CPU      0.08s WALL (       1 calls)

     Called by init_run:
     wfcinit      :      0.03s CPU      0.03s WALL (       1 calls)
     potinit      :      0.01s CPU      0.01s WALL (       1 calls)
     hinit0       :      0.14s CPU      0.14s WALL (       1 calls)

     Called by electrons:
     c_bands      :      0.33s CPU      0.35s WALL (      10 calls)
     sum_band     :      0.07s CPU      0.09s WALL (      10 calls)
     v_of_rho     :      0.00s CPU      0.00s WALL (      11 calls)
     newd         :      0.05s CPU      0.05s WALL (      11 calls)
     mix_rho      :      0.00s CPU      0.00s WALL (      10 calls)

     Called by c_bands:
     init_us_2    :      0.01s CPU      0.01s WALL (     184 calls)
     cegterg      :      0.30s CPU      0.32s WALL (      80 calls)

     Called by *egterg:
     cdiaghg      :      0.08s CPU      0.08s WALL (     334 calls)
     h_psi        :      0.20s CPU      0.20s WALL (     342 calls)
     s_psi        :      0.01s CPU      0.01s WALL (     342 calls)
     g_psi        :      0.00s CPU      0.00s WALL (     254 calls)

     Called by h_psi:
     h_psi:calbec :      0.01s CPU      0.01s WALL (     342 calls)
     vloc_psi     :      0.17s CPU      0.18s WALL (     342 calls)
     add_vuspsi   :      0.01s CPU      0.01s WALL (     342 calls)

     General routines
     calbec       :      0.01s CPU      0.02s WALL (     558 calls)
     fft          :      0.03s CPU      0.03s WALL (      52 calls)
     ffts         :      0.00s CPU      0.00s WALL (      10 calls)
     fftw         :      0.15s CPU      0.16s WALL (    7718 calls)

     Parallel routines

     PWSCF        :      0.91s CPU      0.95s WALL


   This run was terminated on:  23:57:14   7Oct2025            

=------------------------------------------------------------------------------=
   JOB DONE.
=------------------------------------------------------------------------------=
