LAMMPS (22 Jul 2025 - Update 1)
# ---------- 1. Initialize simulation ---------------------
units metal
atom_style atomic
dimension  3
boundary   p p f
read_data /home/bond/Work/Lab1/Surface/LJ/relax/7_3_110/lammps.data
Reading data file ...
  orthogonal box = (0 0 0) to (12.367569 8.7451919 14.745192)
  1 by 1 by 1 MPI processor grid
  reading atoms ...
  63 atoms
  read_data CPU = 0.001 seconds

# ---------- 2. Specify interatomic potential ---------------------
pair_style lj/cut 4.5
pair_coeff 1 1 0.392 2.620 4.5

# ---------- 3. Run single point calculation  ---------------------
thermo_style custom step pe lx ly lz press pxx pyy pzz
run 0
WARNING: No fixes with time integration, atoms won't move
For more information see https://docs.lammps.org/err0028 (../verlet.cpp:60)
Generated 0 of 0 mixed pair_coeff terms from geometric mixing rule
Neighbor list info ...
  update: every = 1 steps, delay = 0 steps, check = yes
  max neighbors/atom: 2000, page size: 100000
  master list distance cutoff = 6.5
  ghost atom cutoff = 6.5
  binsize = 3.25, bins = 4 3 5
  1 neighbor lists, perpetual/occasional/extra = 1 0 0
  (1) pair lj/cut, perpetual
      attributes: half, newton on
      pair build: half/bin/atomonly/newton
      stencil: half/bin/3d
      bin: standard
Per MPI rank memory allocation (min/avg/max) = 3.054 | 3.054 | 3.054 Mbytes
   Step         PotEng           Lx             Ly             Lz           Press           Pxx            Pyy            Pzz      
         0  -141.40006      12.367569      8.7451919      14.745192      1622.2463     -4866.1514      7299.6304      2433.26      
Loop time of 1.697e-06 on 1 procs for 0 steps with 63 atoms

58.9% CPU use with 1 MPI tasks x no OpenMP threads

MPI task timing breakdown:
Section |  min time  |  avg time  |  max time  |%varavg| %total
---------------------------------------------------------------
Pair    | 0          | 0          | 0          |   0.0 |  0.00
Neigh   | 0          | 0          | 0          |   0.0 |  0.00
Comm    | 0          | 0          | 0          |   0.0 |  0.00
Output  | 0          | 0          | 0          |   0.0 |  0.00
Modify  | 0          | 0          | 0          |   0.0 |  0.00
Other   |            | 1.697e-06  |            |       |100.00

Nlocal:             63 ave          63 max          63 min
Histogram: 1 0 0 0 0 0 0 0 0 0
Nghost:            276 ave         276 max         276 min
Histogram: 1 0 0 0 0 0 0 0 0 0
Neighs:           1323 ave        1323 max        1323 min
Histogram: 1 0 0 0 0 0 0 0 0 0

Total # of neighbors = 1323
Ave neighs/atom = 21
Neighbor list builds = 0
Dangerous builds = 0
# -- include optimization of the unit cell parameter
fix 1 all box/relax x 0.0 y 0.0 couple xy vmax 0.001

# -- enable optimization of atomic positions (and the cell)
min_style cg
minimize 1e-10 1e-10 1000 10000
Generated 0 of 0 mixed pair_coeff terms from geometric mixing rule
WARNING: Energy due to 3 extra global DOFs will be included in minimizer energies
 (../min.cpp:222)
Per MPI rank memory allocation (min/avg/max) = 4.179 | 4.179 | 4.179 Mbytes
   Step         PotEng           Lx             Ly             Lz           Press           Pxx            Pyy            Pzz      
         0  -141.40006      12.367569      8.7451919      14.745192      1622.2463     -4866.1514      7299.6304      2433.26      
        10  -141.41261      12.365493      8.743724       14.745192      3.8504371     -6790.5728      6793.5832      8.5408623    
Loop time of 0.000644204 on 1 procs for 10 steps with 63 atoms

100.0% CPU use with 1 MPI tasks x no OpenMP threads

Minimization stats:
  Stopping criterion = energy tolerance
  Energy initial, next-to-last, final = 
     -141.400057257668  -141.412610532088   -141.41261054227
  Force two-norm initial, final = 1.8001579 0.0040710258
  Force max component initial, final = 1.2111317 0.0014980355
  Final line search alpha, max atom move = 0.25632826 0.00038398883
  Iterations, force evaluations = 10 20

MPI task timing breakdown:
Section |  min time  |  avg time  |  max time  |%varavg| %total
---------------------------------------------------------------
Pair    | 0.00042246 | 0.00042246 | 0.00042246 |   0.0 | 65.58
Neigh   | 0          | 0          | 0          |   0.0 |  0.00
Comm    | 3.0084e-05 | 3.0084e-05 | 3.0084e-05 |   0.0 |  4.67
Output  | 0          | 0          | 0          |   0.0 |  0.00
Modify  | 0          | 0          | 0          |   0.0 |  0.00
Other   |            | 0.0001917  |            |       | 29.75

Nlocal:             63 ave          63 max          63 min
Histogram: 1 0 0 0 0 0 0 0 0 0
Nghost:            276 ave         276 max         276 min
Histogram: 1 0 0 0 0 0 0 0 0 0
Neighs:           1323 ave        1323 max        1323 min
Histogram: 1 0 0 0 0 0 0 0 0 0

Total # of neighbors = 1323
Ave neighs/atom = 21
Neighbor list builds = 0
Dangerous builds = 0

# ---- 4. Define and print useful variables -------------
variable natoms equal "count(all)"
variable totenergy equal "pe"
variable length equal "lx"

print "Total energy (eV) = ${totenergy}"
Total energy (eV) = -141.41261054227
print "Number of atoms = ${natoms}"
Number of atoms = 63
print "Lattice constant (Angstoms) = ${length}"
Lattice constant (Angstoms) = 12.3654929962195
Total wall time: 0:00:00
