LAMMPS (22 Jul 2025 - Update 1)
Reading data file ...
  orthogonal box = (0 0 0) to (41.22523 41.22523 41.22523)
  1 by 1 by 1 MPI processor grid
  reading atoms ...
  3999 atoms
  read_data CPU = 0.014 seconds
WARNING: No fixes with time integration, atoms won't move
For more information see https://docs.lammps.org/err0028 (../verlet.cpp:60)
Generated 0 of 0 mixed pair_coeff terms from geometric mixing rule
Neighbor list info ...
  update: every = 1 steps, delay = 0 steps, check = yes
  max neighbors/atom: 2000, page size: 100000
  master list distance cutoff = 6.5
  ghost atom cutoff = 6.5
  binsize = 3.25, bins = 13 13 13
  1 neighbor lists, perpetual/occasional/extra = 1 0 0
  (1) pair lj/cut, perpetual
      attributes: half, newton on
      pair build: half/bin/atomonly/newton
      stencil: half/bin/3d
      bin: standard
Setting up Verlet run ...
  Unit style    : metal
  Current step  : 0
  Time step     : 0.001
Per MPI rank memory allocation (min/avg/max) = 3.725 | 3.725 | 3.725 Mbytes
   Step         PotEng           Lx             Ly             Lz           Press           Pxx            Pyy            Pzz      
         0  -10533.149      41.22523       41.22523       41.22523      -0.0020060083  -0.002014001   -0.0019900227  -0.0020140011 
Loop time of 2.373e-06 on 1 procs for 0 steps with 3999 atoms

168.6% CPU use with 1 MPI tasks x no OpenMP threads

MPI task timing breakdown:
Section |  min time  |  avg time  |  max time  |%varavg| %total
---------------------------------------------------------------
Pair    | 0          | 0          | 0          |   0.0 |  0.00
Neigh   | 0          | 0          | 0          |   0.0 |  0.00
Comm    | 0          | 0          | 0          |   0.0 |  0.00
Output  | 0          | 0          | 0          |   0.0 |  0.00
Modify  | 0          | 0          | 0          |   0.0 |  0.00
Other   |            | 2.373e-06  |            |       |100.00

Nlocal:           3999 ave        3999 max        3999 min
Histogram: 1 0 0 0 0 0 0 0 0 0
Nghost:           5834 ave        5834 max        5834 min
Histogram: 1 0 0 0 0 0 0 0 0 0
Neighs:         107946 ave      107946 max      107946 min
Histogram: 1 0 0 0 0 0 0 0 0 0

Total # of neighbors = 107946
Ave neighs/atom = 26.993248
Neighbor list builds = 0
Dangerous builds = 0
Total energy (eV) = -10533.1493947974
Number of atoms = 3999
Lattice constant (Angstoms) = 41.2252301377974
Total wall time: 0:00:00
