LAMMPS (22 Jul 2025 - Update 1)
Reading data file ...
  orthogonal box = (0 0 0) to (12.244965 8.6584976 13.544663)
  1 by 1 by 1 MPI processor grid
  reading atoms ...
  81 atoms
  read_data CPU = 0.001 seconds
Reading eam/alloy potential file /home/bond/Software/LAMMPS/lammps-22Jul2025/potentials/Al_zhou.eam.alloy with DATE: 2007-10-12
WARNING: No fixes with time integration, atoms won't move
For more information see https://docs.lammps.org/err0028 (../verlet.cpp:60)
Neighbor list info ...
  update: every = 1 steps, delay = 0 steps, check = yes
  max neighbors/atom: 2000, page size: 100000
  master list distance cutoff = 12.1025
  ghost atom cutoff = 12.1025
  binsize = 6.05125, bins = 3 2 3
  1 neighbor lists, perpetual/occasional/extra = 1 0 0
  (1) pair eam/alloy, perpetual
      attributes: half, newton on
      pair build: half/bin/atomonly/newton
      stencil: half/bin/3d
      bin: standard
Setting up Verlet run ...
  Unit style    : metal
  Current step  : 0
  Time step     : 0.001
Per MPI rank memory allocation (min/avg/max) = 3.33 | 3.33 | 3.33 Mbytes
   Step         PotEng           Lx             Ly             Lz           Press           Pxx            Pyy            Pzz      
         0  -276.98048      12.244965      8.6584976      13.544663     -29073.096     -35742.437     -33515.03      -17961.822    
Loop time of 2.265e-06 on 1 procs for 0 steps with 81 atoms

88.3% CPU use with 1 MPI tasks x no OpenMP threads

MPI task timing breakdown:
Section |  min time  |  avg time  |  max time  |%varavg| %total
---------------------------------------------------------------
Pair    | 0          | 0          | 0          |   0.0 |  0.00
Neigh   | 0          | 0          | 0          |   0.0 |  0.00
Comm    | 0          | 0          | 0          |   0.0 |  0.00
Output  | 0          | 0          | 0          |   0.0 |  0.00
Modify  | 0          | 0          | 0          |   0.0 |  0.00
Other   |            | 2.265e-06  |            |       |100.00

Nlocal:             81 ave          81 max          81 min
Histogram: 1 0 0 0 0 0 0 0 0 0
Nghost:            795 ave         795 max         795 min
Histogram: 1 0 0 0 0 0 0 0 0 0
Neighs:          11322 ave       11322 max       11322 min
Histogram: 1 0 0 0 0 0 0 0 0 0

Total # of neighbors = 11322
Ave neighs/atom = 139.77778
Neighbor list builds = 0
Dangerous builds = 0
Setting up cg style minimization ...
  Unit style    : metal
  Current step  : 0
Per MPI rank memory allocation (min/avg/max) = 4.455 | 4.455 | 4.455 Mbytes
   Step         PotEng           Lx             Ly             Lz           Press           Pxx            Pyy            Pzz      
         0  -276.98048      12.244965      8.6584976      13.544663     -29073.096     -35742.437     -33515.03      -17961.822    
         9  -277.35543      12.244965      8.6584976      13.544663     -13914.305     -20860.623     -20882.332      0.039881464  
Loop time of 0.0123062 on 1 procs for 9 steps with 81 atoms

98.1% CPU use with 1 MPI tasks x no OpenMP threads

Minimization stats:
  Stopping criterion = energy tolerance
  Energy initial, next-to-last, final = 
     -276.980477542258  -277.355425047951  -277.355425048291
  Force two-norm initial, final = 1.5801569 6.482625e-06
  Force max component initial, final = 0.32281095 1.3249203e-06
  Final line search alpha, max atom move = 1 1.3249203e-06
  Iterations, force evaluations = 9 18

MPI task timing breakdown:
Section |  min time  |  avg time  |  max time  |%varavg| %total
---------------------------------------------------------------
Pair    | 0.012079   | 0.012079   | 0.012079   |   0.0 | 98.15
Neigh   | 0          | 0          | 0          |   0.0 |  0.00
Comm    | 9.2544e-05 | 9.2544e-05 | 9.2544e-05 |   0.0 |  0.75
Output  | 0          | 0          | 0          |   0.0 |  0.00
Modify  | 0          | 0          | 0          |   0.0 |  0.00
Other   |            | 0.0001347  |            |       |  1.09

Nlocal:             81 ave          81 max          81 min
Histogram: 1 0 0 0 0 0 0 0 0 0
Nghost:            795 ave         795 max         795 min
Histogram: 1 0 0 0 0 0 0 0 0 0
Neighs:          11322 ave       11322 max       11322 min
Histogram: 1 0 0 0 0 0 0 0 0 0

Total # of neighbors = 11322
Ave neighs/atom = 139.77778
Neighbor list builds = 0
Dangerous builds = 0
Total energy (eV) = -277.355425048291
Number of atoms = 81
Lattice constant (Angstoms) = 12.2449647145904
Total wall time: 0:00:00
