
     Program PWSCF v.7.4.1 starts on  8Oct2025 at  1:42: 5 

     This program is part of the open-source Quantum ESPRESSO suite
     for quantum simulation of materials; please cite
         "P. Giannozzi et al., J. Phys.:Condens. Matter 21 395502 (2009);
         "P. Giannozzi et al., J. Phys.:Condens. Matter 29 465901 (2017);
         "P. Giannozzi et al., J. Chem. Phys. 152 154105 (2020);
          URL http://www.quantum-espresso.org", 
     in publications or presentations arising from this work. More details at
     http://www.quantum-espresso.org/quote

     Parallel version (MPI), running on     1 processors

     MPI processes distributed on     1 nodes
     553 MiB available memory on the printing compute node when the environment starts

     Waiting for input...
     Reading input from standard input
Warning: card &CELL ignored
Warning: card / ignored

     Current dimensions of program PWSCF are:
     Max number of different atomic species (ntypx) = 10
     Max number of k-points (npk) =  40000
     Max angular momentum in pseudopotentials (lmaxx) =  4
     Message from routine setup:
     using ibrav=0 with symmetry is DISCOURAGED, use correct ibrav instead

     Subspace diagonalization in iterative solution of the eigenvalue problem:
     a serial algorithm will be used


     G-vector sticks info
     --------------------
     sticks:   dense  smooth     PW     G-vecs:    dense   smooth      PW
     Sum         475     475    151                 6855     6855    1243

     Using Slab Decomposition



     bravais-lattice index     =            0
     lattice parameter (alat)  =       7.5604  a.u.
     unit-cell volume          =     305.5804 (a.u.)^3
     number of atoms/cell      =            2
     number of atomic types    =            1
     number of electrons       =        28.00
     number of Kohn-Sham states=           14
     kinetic-energy cutoff     =      30.0000  Ry
     charge density cutoff     =     120.0000  Ry
     scf convergence threshold =      1.0E-07
     mixing beta               =       0.5000
     number of iterations used =            8  plain     mixing
     Exchange-correlation=  SLA  PZ   NOGX NOGC
                           (   1   1   0   0   0   0   0)

     celldm(1)=   7.560435  celldm(2)=   0.000000  celldm(3)=   0.000000
     celldm(4)=   0.000000  celldm(5)=   0.000000  celldm(6)=   0.000000

     crystal axes: (cart. coord. in units of alat)
               a(1) = (   0.000000   0.707107   0.707107 )  
               a(2) = (   0.707107   0.000000   0.707107 )  
               a(3) = (   0.707107   0.707107   0.000000 )  

     reciprocal axes: (cart. coord. in units 2 pi/alat)
               b(1) = ( -0.707107  0.707107  0.707107 )  
               b(2) = (  0.707107 -0.707107  0.707107 )  
               b(3) = (  0.707107  0.707107 -0.707107 )  


     PseudoPot. # 1 for Ge read from file:
     /home/bond/Software/QE/qe-7.4.1/pseudo/ge_lda_v1.4.uspp.F.UPF
     MD5 check sum: bf9d52b59cc8a669818bb2b52e0c2ba0
     Pseudo is Ultrasoft + core correction, Zval = 14.0
     Generated by new atomic code, or converted to UPF format
     Using radial grid of  873 points,  6 beta functions with: 
                l(1) =   0
                l(2) =   0
                l(3) =   1
                l(4) =   1
                l(5) =   2
                l(6) =   2
     Q(r) pseudized with  8 coefficients,  rinner =    1.400   1.400   1.400
                                                       1.400   1.400

     atomic species   valence    mass     pseudopotential
     Ge               14.00    72.63000     Ge( 1.00)

      4 Sym. Ops. (no inversion) found



   Cartesian axes

     site n.     atom                  positions (alat units)
         1        Ge     tau(   1) = (   0.0000000   0.0000000   0.0707107  )
         2        Ge     tau(   2) = (   0.3535534   0.3535534   0.3535534  )

     number of k points=    46
                       cart. coord. in units 2pi/alat
        k(    1) = (   0.0000000   0.0000000   0.0000000), wk =   0.0092593
        k(    2) = (   0.1178511   0.1178511  -0.1178511), wk =   0.0370370
        k(    3) = (   0.2357023   0.2357023  -0.2357023), wk =   0.0370370
        k(    4) = (  -0.3535534  -0.3535534   0.3535534), wk =   0.0185185
        k(    5) = (   0.2357023   0.0000000   0.0000000), wk =   0.0370370
        k(    6) = (   0.3535534   0.1178511  -0.1178511), wk =   0.0740741
        k(    7) = (  -0.2357023  -0.4714045   0.4714045), wk =   0.0740741
        k(    8) = (  -0.1178511  -0.3535534   0.3535534), wk =   0.0740741
        k(    9) = (   0.0000000  -0.2357023   0.2357023), wk =   0.0740741
        k(   10) = (   0.4714045   0.0000000   0.0000000), wk =   0.0370370
        k(   11) = (  -0.1178511  -0.5892557   0.5892557), wk =   0.0740741
        k(   12) = (  -0.0000000  -0.4714045   0.4714045), wk =   0.0740741
        k(   13) = (  -0.7071068   0.0000000   0.0000000), wk =   0.0185185
        k(   14) = (  -0.2357023  -0.4714045   0.7071068), wk =   0.0370370
        k(   15) = (  -0.1178511  -0.3535534   0.5892557), wk =   0.0740741
        k(   16) = (  -0.7071068   0.2357023   0.0000000), wk =   0.0370370
        k(   17) = (   0.1178511  -0.1178511  -0.1178511), wk =   0.0370370
        k(   18) = (   0.2357023  -0.2357023  -0.2357023), wk =   0.0370370
        k(   19) = (  -0.3535534   0.3535534   0.3535534), wk =   0.0185185
        k(   20) = (   0.0000000   0.0000000   0.2357023), wk =   0.0185185
        k(   21) = (   0.1178511  -0.3535534  -0.1178511), wk =   0.0740741
        k(   22) = (  -0.1178511  -0.1178511   0.3535534), wk =   0.0370370
        k(   23) = (   0.1178511  -0.1178511  -0.3535534), wk =   0.0370370
        k(   24) = (  -0.4714045   0.2357023   0.4714045), wk =   0.0740741
        k(   25) = (   0.4714045   0.4714045  -0.2357023), wk =   0.0370370
        k(   26) = (  -0.4714045   0.4714045   0.2357023), wk =   0.0370370
        k(   27) = (  -0.3535534   0.1178511   0.3535534), wk =   0.0740741
        k(   28) = (   0.3535534   0.3535534  -0.1178511), wk =   0.0370370
        k(   29) = (  -0.3535534   0.3535534   0.1178511), wk =   0.0370370
        k(   30) = (   0.2357023   0.2357023   0.0000000), wk =   0.0185185
        k(   31) = (  -0.2357023   0.2357023   0.0000000), wk =   0.0185185
        k(   32) = (   0.0000000   0.0000000   0.4714045), wk =   0.0185185
        k(   33) = (  -0.5892557   0.1178511   0.5892557), wk =   0.0740741
        k(   34) = (   0.5892557   0.5892557  -0.1178511), wk =   0.0370370
        k(   35) = (  -0.5892557   0.5892557   0.1178511), wk =   0.0370370
        k(   36) = (   0.4714045   0.4714045  -0.0000000), wk =   0.0185185
        k(   37) = (  -0.4714045   0.4714045   0.0000000), wk =   0.0185185
        k(   38) = (   0.0000000   0.0000000  -0.7071068), wk =   0.0092593
        k(   39) = (  -0.4714045   0.2357023   0.7071068), wk =   0.0370370
        k(   40) = (   0.7071068   0.4714045  -0.2357023), wk =   0.0740741
        k(   41) = (   0.2357023   0.7071068  -0.4714045), wk =   0.0740741
        k(   42) = (  -0.3535534   0.1178511   0.5892557), wk =   0.0740741
        k(   43) = (   0.1178511   0.5892557  -0.3535534), wk =   0.0370370
        k(   44) = (   0.1178511  -0.5892557   0.3535534), wk =   0.0370370
        k(   45) = (  -0.0000000  -0.2357023  -0.7071068), wk =   0.0370370
        k(   46) = (   0.7071068   0.0000000   0.2357023), wk =   0.0370370

     Dense  grid:     6855 G-vectors     FFT dimensions: (  27,  27,  27)

     Estimated max dynamical RAM per process >      35.09 MB

     Check: negative core charge=   -0.000124

     Initial potential from superposition of free atoms

     starting charge      27.9986, renormalised to      28.0000
     Starting wfcs are   18 randomized atomic wfcs

     total cpu time spent up to now is        1.4 secs

     Self-consistent Calculation

     iteration #  1     ecut=    30.00 Ry     beta= 0.50
     Davidson diagonalization with overlap
     ethr =  1.00E-02,  avg # of iterations =  1.9

     Threshold (ethr) on eigenvalues was too large:
     Diagonalizing with lowered threshold

     Davidson diagonalization with overlap
     ethr =  1.26E-04,  avg # of iterations =  2.0

     total cpu time spent up to now is        3.8 secs

     total energy              =    -426.10508371 Ry
     estimated scf accuracy    <       0.03713715 Ry

     iteration #  2     ecut=    30.00 Ry     beta= 0.50
     Davidson diagonalization with overlap
     ethr =  1.33E-04,  avg # of iterations =  1.1

     total cpu time spent up to now is        4.9 secs

     total energy              =    -426.10395037 Ry
     estimated scf accuracy    <       0.00617666 Ry

     iteration #  3     ecut=    30.00 Ry     beta= 0.50
     Davidson diagonalization with overlap
     ethr =  2.21E-05,  avg # of iterations =  2.1

     total cpu time spent up to now is        6.1 secs

     total energy              =    -426.10448104 Ry
     estimated scf accuracy    <       0.00007983 Ry

     iteration #  4     ecut=    30.00 Ry     beta= 0.50
     Davidson diagonalization with overlap
     ethr =  2.85E-07,  avg # of iterations =  3.8

     total cpu time spent up to now is        7.7 secs

     total energy              =    -426.10450632 Ry
     estimated scf accuracy    <       0.00000799 Ry

     iteration #  5     ecut=    30.00 Ry     beta= 0.50
     Davidson diagonalization with overlap
     ethr =  2.85E-08,  avg # of iterations =  2.4

     total cpu time spent up to now is        9.0 secs

     total energy              =    -426.10450766 Ry
     estimated scf accuracy    <       0.00000019 Ry

     iteration #  6     ecut=    30.00 Ry     beta= 0.50
     Davidson diagonalization with overlap
     ethr =  6.94E-10,  avg # of iterations =  4.1

     total cpu time spent up to now is       10.9 secs

     End of self-consistent calculation

          k = 0.0000 0.0000 0.0000 (   869 PWs)   bands (ev):

   -16.9732 -16.9707 -16.9060 -16.8715 -16.8466 -16.6942 -16.6684 -16.6660
   -16.6387 -16.6361  -4.7478   6.8447   7.9537   8.3717

          k = 0.1179 0.1179-0.1179 (   869 PWs)   bands (ev):

   -17.0033 -16.9913 -16.9030 -16.8381 -16.8353 -16.7075 -16.7033 -16.6341
   -16.6279 -16.6143  -4.3968   4.3008   7.3556   8.4160

          k = 0.2357 0.2357-0.2357 (   854 PWs)   bands (ev):

   -17.0375 -17.0202 -16.8953 -16.8208 -16.8081 -16.7181 -16.7139 -16.6273
   -16.6035 -16.5720  -3.3846   1.3892   6.5947   7.6939

          k =-0.3536-0.3536 0.3536 (   862 PWs)   bands (ev):

   -17.0478 -17.0395 -16.8854 -16.8337 -16.8084 -16.7156 -16.7144 -16.6330
   -16.5890 -16.5609  -2.3313  -0.3310   6.3144   7.4566

          k = 0.2357 0.0000 0.0000 (   869 PWs)   bands (ev):

   -17.0037 -16.9922 -16.9044 -16.8364 -16.8205 -16.7300 -16.6997 -16.6356
   -16.6213 -16.6196  -4.3032   4.4799   6.9573   7.1598

          k = 0.3536 0.1179-0.1179 (   847 PWs)   bands (ev):

   -17.0309 -17.0246 -16.8984 -16.8058 -16.7934 -16.7433 -16.7111 -16.6320
   -16.5885 -16.5740  -3.4835   1.9883   6.1031   6.6616

          k =-0.2357-0.4714 0.4714 (   842 PWs)   bands (ev):

   -17.0511 -17.0306 -16.8796 -16.8178 -16.7943 -16.7185 -16.7158 -16.6419
   -16.5800 -16.5499  -2.2195  -0.1057   5.3265   6.3189

          k =-0.1179-0.3536 0.3536 (   848 PWs)   bands (ev):

   -17.0444 -17.0093 -16.8744 -16.8334 -16.7976 -16.7233 -16.7049 -16.6513
   -16.5978 -16.5617  -2.7376   0.7356   4.9960   6.7791

          k = 0.0000-0.2357 0.2357 (   845 PWs)   bands (ev):

   -17.0065 -16.9800 -16.8877 -16.8284 -16.8237 -16.7124 -16.7000 -16.6430
   -16.6219 -16.6000  -3.8893   3.2892   5.4174   7.7127

          k = 0.4714 0.0000 0.0000 (   837 PWs)   bands (ev):

   -17.0319 -17.0205 -16.8857 -16.7885 -16.7880 -16.7496 -16.7155 -16.6438
   -16.5774 -16.5739  -2.9992   1.6418   5.6450   5.7608

          k =-0.1179-0.5893 0.5893 (   847 PWs)   bands (ev):

   -17.0514 -17.0307 -16.8728 -16.8197 -16.7737 -16.7327 -16.7200 -16.6648
   -16.5710 -16.5496  -1.7720  -0.1254   4.6976   5.5265

          k =-0.0000-0.4714 0.4714 (   856 PWs)   bands (ev):

   -17.0510 -17.0083 -16.8521 -16.8429 -16.7735 -16.7426 -16.7007 -16.6912
   -16.5911 -16.5571  -1.8949   0.2260   3.6832   6.0017

          k =-0.7071 0.0000 0.0000 (   846 PWs)   bands (ev):

   -17.0411 -17.0411 -16.8476 -16.8475 -16.7526 -16.7525 -16.6905 -16.6905
   -16.5586 -16.5586  -0.9446  -0.9446   5.2188   5.2188

          k =-0.2357-0.4714 0.7071 (   843 PWs)   bands (ev):

   -17.0585 -17.0179 -16.8940 -16.7938 -16.7930 -16.7400 -16.7151 -16.6363
   -16.5898 -16.5429  -2.4232   0.4616   4.5472   6.3271

          k =-0.1179-0.3536 0.5893 (   842 PWs)   bands (ev):

   -17.0549 -16.9887 -16.8728 -16.8250 -16.7850 -16.7328 -16.7037 -16.6595
   -16.6080 -16.5458  -1.5202  -0.3747   3.8805   5.6706

          k =-0.7071 0.2357 0.0000 (   858 PWs)   bands (ev):

   -17.0533 -16.9987 -16.8594 -16.8429 -16.7656 -16.7522 -16.6928 -16.6925
   -16.5967 -16.5556  -1.3193  -0.3464   4.2285   4.7090

          k = 0.1179-0.1179-0.1179 (   869 PWs)   bands (ev):

   -16.9751 -16.9714 -16.8975 -16.8666 -16.8339 -16.7040 -16.6777 -16.6696
   -16.6332 -16.6327  -4.4404   5.3700   6.5449   8.2375

          k = 0.2357-0.2357-0.2357 (   854 PWs)   bands (ev):

   -16.9794 -16.9621 -16.8846 -16.8558 -16.8173 -16.7196 -16.6893 -16.6585
   -16.6335 -16.6270  -3.6297   2.5952   6.0776   7.7134

          k =-0.3536 0.3536 0.3536 (   862 PWs)   bands (ev):

   -16.9858 -16.9576 -16.8829 -16.8552 -16.8017 -16.7374 -16.7005 -16.6594
   -16.6336 -16.6274  -3.0122   1.2902   5.8850   7.5234

          k = 0.0000 0.0000 0.2357 (   869 PWs)   bands (ev):

   -16.9774 -16.9719 -16.8939 -16.8572 -16.8542 -16.6980 -16.6819 -16.6542
   -16.6454 -16.6320  -4.3116   5.0328   6.0459   7.3276

          k = 0.1179-0.3536-0.1179 (   847 PWs)   bands (ev):

   -17.0078 -16.9790 -16.8903 -16.8212 -16.7965 -16.7473 -16.7042 -16.6445
   -16.6154 -16.6029  -3.6397   3.1238   5.1544   6.5409

          k =-0.1179-0.1179 0.3536 (   847 PWs)   bands (ev):

   -17.0121 -16.9705 -16.8769 -16.8497 -16.8156 -16.7271 -16.6815 -16.6396
   -16.6383 -16.5962  -3.5491   2.4993   5.3974   6.6787

          k = 0.1179-0.1179-0.3536 (   847 PWs)   bands (ev):

   -16.9797 -16.9613 -16.8770 -16.8567 -16.8332 -16.7148 -16.6761 -16.6531
   -16.6329 -16.6261  -3.6226   2.9981   5.5571   6.2203

          k =-0.4714 0.2357 0.4714 (   842 PWs)   bands (ev):

   -17.0127 -16.9742 -16.8694 -16.8086 -16.8017 -16.7394 -16.7195 -16.6646
   -16.6078 -16.5923  -2.8004   1.4342   4.3489   6.5126

          k = 0.4714 0.4714-0.2357 (   842 PWs)   bands (ev):

   -17.0504 -16.9933 -16.8765 -16.8349 -16.7981 -16.7221 -16.7003 -16.6319
   -16.6226 -16.5517  -2.2964   0.1006   4.7567   6.6811

          k =-0.4714 0.4714 0.2357 (   842 PWs)   bands (ev):

   -16.9823 -16.9532 -16.8684 -16.8503 -16.8109 -16.7221 -16.6980 -16.6629
   -16.6244 -16.6200  -2.8175   1.4154   5.3258   5.4776

          k =-0.3536 0.1179 0.3536 (   848 PWs)   bands (ev):

   -17.0125 -16.9729 -16.8710 -16.8245 -16.8113 -16.7239 -16.7151 -16.6668
   -16.6128 -16.5942  -3.0087   1.7358   4.2913   6.9906

          k = 0.3536 0.3536-0.1179 (   848 PWs)   bands (ev):

   -17.0590 -17.0191 -16.8989 -16.8029 -16.7991 -16.7352 -16.7143 -16.6218
   -16.5993 -16.5448  -2.5690   0.3425   4.7917   7.3207

          k =-0.3536 0.3536 0.1179 (   848 PWs)   bands (ev):

   -16.9835 -16.9582 -16.8720 -16.8532 -16.7851 -16.7478 -16.6983 -16.6723
   -16.6213 -16.6169  -3.1121   2.0862   4.9679   5.8433

          k = 0.2357 0.2357 0.0000 (   845 PWs)   bands (ev):

   -17.0321 -17.0220 -16.9061 -16.8086 -16.7894 -16.7439 -16.7073 -16.6214
   -16.5927 -16.5739  -3.7858   2.4200   5.8351   8.3873

          k =-0.2357 0.2357 0.0000 (   845 PWs)   bands (ev):

   -16.9801 -16.9602 -16.8812 -16.8577 -16.7993 -16.7326 -16.6783 -16.6732
   -16.6244 -16.6207  -3.9718   4.2935   5.4814   6.4038

          k = 0.0000 0.0000 0.4714 (   837 PWs)   bands (ev):

   -16.9833 -16.9498 -16.8605 -16.8546 -16.8342 -16.7294 -16.6652 -16.6508
   -16.6309 -16.6232  -3.0662   2.1218   4.9833   5.8805

          k =-0.5893 0.1179 0.5893 (   847 PWs)   bands (ev):

   -17.0439 -17.0114 -16.8645 -16.8213 -16.7682 -16.7410 -16.7220 -16.6710
   -16.5836 -16.5630  -2.1258   0.6065   4.2326   5.5702

          k = 0.5893 0.5893-0.1179 (   847 PWs)   bands (ev):

   -17.0232 -16.9510 -16.8705 -16.8388 -16.7971 -16.7613 -16.6871 -16.6451
   -16.6374 -16.5819  -2.0339   0.5206   3.9045   5.7348

          k =-0.5893 0.5893 0.1179 (   847 PWs)   bands (ev):

   -16.9872 -16.9461 -16.8528 -16.8514 -16.8387 -16.7292 -16.6754 -16.6750
   -16.6263 -16.6150  -2.2559   0.9634   4.7706   4.8393

          k = 0.4714 0.4714-0.0000 (   856 PWs)   bands (ev):

   -17.0629 -16.9833 -16.8873 -16.8177 -16.7963 -16.7356 -16.7126 -16.6373
   -16.6298 -16.5458  -1.2138  -0.7120   3.5048   6.2785

          k =-0.4714 0.4714 0.0000 (   856 PWs)   bands (ev):

   -16.9861 -16.9541 -16.8559 -16.8519 -16.8182 -16.7198 -16.7159 -16.6813
   -16.6183 -16.6178  -2.3326   1.2676   3.9032   5.2041

          k = 0.0000 0.0000-0.7071 (   846 PWs)   bands (ev):

   -16.9890 -16.9358 -16.8647 -16.8443 -16.8438 -16.7309 -16.6841 -16.6466
   -16.6401 -16.6109  -1.7514   0.2328   4.5748   5.3836

          k =-0.4714 0.2357 0.7071 (   843 PWs)   bands (ev):

   -17.0130 -16.9736 -16.8740 -16.8076 -16.7888 -16.7536 -16.7204 -16.6589
   -16.6066 -16.5955  -2.8949   2.0717   4.4639   5.0679

          k = 0.7071 0.4714-0.2357 (   843 PWs)   bands (ev):

   -17.0167 -16.9634 -16.8591 -16.8484 -16.8046 -16.7408 -16.6817 -16.6658
   -16.6216 -16.5881  -2.7376   1.4631   4.2170   5.8235

          k = 0.2357 0.7071-0.4714 (   843 PWs)   bands (ev):

   -17.0397 -17.0185 -16.8722 -16.8096 -16.7809 -16.7417 -16.7148 -16.6620
   -16.5814 -16.5645  -2.6776   1.1599   4.4327   5.9434

          k =-0.3536 0.1179 0.5893 (   842 PWs)   bands (ev):

   -17.0166 -16.9641 -16.8557 -16.8270 -16.8002 -16.7376 -16.7116 -16.6730
   -16.6112 -16.5863  -2.2200   0.9758   3.9245   4.9964

          k = 0.1179 0.5893-0.3536 (   842 PWs)   bands (ev):

   -17.0460 -17.0408 -16.8552 -16.8277 -16.7719 -16.7317 -16.7123 -16.6740
   -16.5622 -16.5527  -1.5815  -0.3632   4.5219   5.0883

          k = 0.1179-0.5893 0.3536 (   842 PWs)   bands (ev):

   -17.0450 -17.0139 -16.8547 -16.8205 -16.7615 -16.7511 -16.7136 -16.6843
   -16.5773 -16.5561  -2.0347   0.5385   3.6043   5.6730

          k =-0.0000-0.2357-0.7071 (   858 PWs)   bands (ev):

   -17.0245 -16.9566 -16.8601 -16.8419 -16.8006 -16.7589 -16.6873 -16.6780
   -16.6236 -16.5829  -1.6104   0.1643   3.8884   4.8025

          k = 0.7071 0.0000 0.2357 (   858 PWs)   bands (ev):

   -17.0457 -17.0457 -16.8440 -16.8440 -16.7527 -16.7527 -16.7021 -16.7020
   -16.5592 -16.5592  -0.8799  -0.8799   4.5315   4.5315

     highest occupied level (ev):     8.4160

!    total energy              =    -426.10450778 Ry
     estimated scf accuracy    <       0.00000003 Ry

     The total energy is the sum of the following terms:
     one-electron contribution =    -280.26450670 Ry
     hartree contribution      =     165.41647929 Ry
     xc contribution           =    -114.50726230 Ry
     ewald contribution        =    -196.74921808 Ry

     convergence has been achieved in   6 iterations

     Forces acting on atoms (cartesian axes, Ry/au):

     atom    1 type  1   force =     0.00000000    0.00000000   -0.11385909
     atom    2 type  1   force =     0.00000000    0.00000000    0.11385909

     Total force =     0.161021     Total SCF correction =     0.000664


     Computing stress (Cartesian axis) and pressure

          total   stress  (Ry/bohr**3)                   (kbar)     P=     -136.21
  -0.00085683   0.00051705  -0.00000000         -126.04       76.06       -0.00
   0.00051705  -0.00085683   0.00000000           76.06     -126.04        0.00
  -0.00000000   0.00000000  -0.00106413           -0.00        0.00     -156.54

     Message from routine punch:
     Nothing written, as per user request (disk_io='none')

     init_run     :      1.10s CPU      1.15s WALL (       1 calls)
     electrons    :      9.38s CPU      9.49s WALL (       1 calls)
     forces       :      0.08s CPU      0.09s WALL (       1 calls)
     stress       :      0.58s CPU      0.58s WALL (       1 calls)

     Called by init_run:
     wfcinit      :      0.69s CPU      0.71s WALL (       1 calls)
     potinit      :      0.02s CPU      0.02s WALL (       1 calls)
     hinit0       :      0.34s CPU      0.36s WALL (       1 calls)

     Called by electrons:
     c_bands      :      7.76s CPU      7.85s WALL (       7 calls)
     sum_band     :      1.47s CPU      1.50s WALL (       7 calls)
     v_of_rho     :      0.01s CPU      0.01s WALL (       7 calls)
     newd         :      0.17s CPU      0.17s WALL (       7 calls)
     mix_rho      :      0.01s CPU      0.01s WALL (       7 calls)

     Called by c_bands:
     init_us_2    :      0.24s CPU      0.25s WALL (     782 calls)
     cegterg      :      7.20s CPU      7.27s WALL (     322 calls)

     Called by *egterg:
     cdiaghg      :      0.29s CPU      0.29s WALL (    1080 calls)
     h_psi        :      6.78s CPU      6.86s WALL (    1172 calls)
     s_psi        :      0.14s CPU      0.14s WALL (    1172 calls)
     g_psi        :      0.03s CPU      0.03s WALL (     804 calls)

     Called by h_psi:
     h_psi:calbec :      0.19s CPU      0.19s WALL (    1172 calls)
     vloc_psi     :      6.41s CPU      6.48s WALL (    1172 calls)
     add_vuspsi   :      0.15s CPU      0.15s WALL (    1172 calls)

     General routines
     calbec       :      0.35s CPU      0.36s WALL (    2276 calls)
     fft          :      0.10s CPU      0.10s WALL (      37 calls)
     ffts         :      0.00s CPU      0.00s WALL (       7 calls)
     fftw         :      6.83s CPU      6.93s WALL (   29142 calls)

     Parallel routines

     PWSCF        :     11.33s CPU     11.55s WALL


   This run was terminated on:   1:42:17   8Oct2025            

=------------------------------------------------------------------------------=
   JOB DONE.
=------------------------------------------------------------------------------=
