
     Program PWSCF v.7.4.1 starts on 21Oct2025 at 18: 1:57 

     This program is part of the open-source Quantum ESPRESSO suite
     for quantum simulation of materials; please cite
         "P. Giannozzi et al., J. Phys.:Condens. Matter 21 395502 (2009);
         "P. Giannozzi et al., J. Phys.:Condens. Matter 29 465901 (2017);
         "P. Giannozzi et al., J. Chem. Phys. 152 154105 (2020);
          URL http://www.quantum-espresso.org", 
     in publications or presentations arising from this work. More details at
     http://www.quantum-espresso.org/quote

     Parallel version (MPI), running on     2 processors

     MPI processes distributed on     1 nodes
     231 MiB available memory on the printing compute node when the environment starts

     Waiting for input...
     Reading input from standard input

     Current dimensions of program PWSCF are:
     Max number of different atomic species (ntypx) = 10
     Max number of k-points (npk) =  40000
     Max angular momentum in pseudopotentials (lmaxx) =  4
     file Cu.pz-d-rrkjus.UPF: wavefunction(s)  3D renormalized
     Message from routine setup:
     using ibrav=0 with symmetry is DISCOURAGED, use correct ibrav instead

     R & G space division:  proc/nbgrp/npool/nimage =       2
     Subspace diagonalization in iterative solution of the eigenvalue problem:
     a serial algorithm will be used


     Parallelization info
     --------------------
     sticks:   dense  smooth     PW     G-vecs:    dense   smooth      PW
     Min         255     126     45                 3815     1365     304
     Max         256     127     46                 3816     1368     305
     Sum         511     253     91                 7631     2733     609

     Using Slab Decomposition



     bravais-lattice index     =            0
     lattice parameter (alat)  =       4.8105  a.u.
     unit-cell volume          =      78.7126 (a.u.)^3
     number of atoms/cell      =            1
     number of atomic types    =            1
     number of electrons       =        11.00
     number of Kohn-Sham states=           10
     kinetic-energy cutoff     =      40.0000  Ry
     charge density cutoff     =     320.0000  Ry
     scf convergence threshold =      1.0E-07
     mixing beta               =       0.7000
     number of iterations used =            8  plain     mixing
     energy convergence thresh.=      1.0E-04
     force convergence thresh. =      1.0E-03
     press convergence thresh. =      5.0E-01
     Exchange-correlation=  SLA  PZ   NOGX NOGC
                           (   1   1   0   0   0   0   0)
     nstep                     =           50


     celldm(1)=   4.810457  celldm(2)=   0.000000  celldm(3)=   0.000000
     celldm(4)=   0.000000  celldm(5)=   0.000000  celldm(6)=   0.000000

     crystal axes: (cart. coord. in units of alat)
               a(1) = (   0.000000   0.707107   0.707107 )  
               a(2) = (   0.707107   0.000000   0.707107 )  
               a(3) = (   0.707107   0.707107   0.000000 )  

     reciprocal axes: (cart. coord. in units 2 pi/alat)
               b(1) = ( -0.707107  0.707107  0.707107 )  
               b(2) = (  0.707107 -0.707107  0.707107 )  
               b(3) = (  0.707107  0.707107 -0.707107 )  


     PseudoPot. # 1 for Cu read from file:
     /home/bond/Software/QE/qe-7.4.1/pseudo/Cu.pz-d-rrkjus.UPF
     MD5 check sum: fd38ae683e239c95a66f426e1f8e5fc7
     Pseudo is Ultrasoft, Zval = 11.0
     Generated by new atomic code, or converted to UPF format
     Using radial grid of  899 points,  3 beta functions with: 
                l(1) =   2
                l(2) =   2
                l(3) =   1
     Q(r) pseudized with 0 coefficients 


     atomic species   valence    mass     pseudopotential
     Cu               11.00    63.54600     Cu( 1.00)

     48 Sym. Ops., with inversion, found



   Cartesian axes

     site n.     atom                  positions (alat units)
         1        Cu     tau(   1) = (   0.0000000   0.0000000   0.0000000  )

     number of k points=   182  Methfessel-Paxton smearing, width (Ry)=  0.0200

     Number of k-points >= 100: set verbosity='high' to print them.

     Dense  grid:     7631 G-vectors     FFT dimensions: (  27,  27,  27)

     Smooth grid:     2733 G-vectors     FFT dimensions: (  20,  20,  20)

     Estimated max dynamical RAM per process >      14.86 MB

     Estimated total dynamical RAM >      29.72 MB

     Initial potential from superposition of free atoms

     starting charge      10.9997, renormalised to      11.0000
     Starting wfcs are    6 randomized atomic wfcs +    4 random wfcs

     total cpu time spent up to now is        1.0 secs

     Self-consistent Calculation

     iteration #  1     ecut=    40.00 Ry     beta= 0.70
     Davidson diagonalization with overlap
     ethr =  1.00E-02,  avg # of iterations =  5.6

     total cpu time spent up to now is        2.1 secs

     total energy              =     -87.72679056 Ry
     estimated scf accuracy    <       0.24682122 Ry

     iteration #  2     ecut=    40.00 Ry     beta= 0.70
     Davidson diagonalization with overlap
     ethr =  2.24E-03,  avg # of iterations =  2.0

     total cpu time spent up to now is        2.8 secs

     total energy              =     -87.81006378 Ry
     estimated scf accuracy    <       0.20597015 Ry

     iteration #  3     ecut=    40.00 Ry     beta= 0.70
     Davidson diagonalization with overlap
     ethr =  1.87E-03,  avg # of iterations =  1.0

     total cpu time spent up to now is        3.4 secs

     total energy              =     -87.84230132 Ry
     estimated scf accuracy    <       0.00123729 Ry

     iteration #  4     ecut=    40.00 Ry     beta= 0.70
     Davidson diagonalization with overlap
     ethr =  1.12E-05,  avg # of iterations =  2.7

     total cpu time spent up to now is        4.2 secs

     total energy              =     -87.84274187 Ry
     estimated scf accuracy    <       0.00003257 Ry

     iteration #  5     ecut=    40.00 Ry     beta= 0.70
     Davidson diagonalization with overlap
     ethr =  2.96E-07,  avg # of iterations =  1.4

     total cpu time spent up to now is        4.8 secs

     total energy              =     -87.84273904 Ry
     estimated scf accuracy    <       0.00000941 Ry

     iteration #  6     ecut=    40.00 Ry     beta= 0.70
     Davidson diagonalization with overlap
     ethr =  8.56E-08,  avg # of iterations =  1.0

     total cpu time spent up to now is        5.3 secs

     End of self-consistent calculation

     Number of k-points >= 100: set verbosity='high' to print the bands.

     the Fermi energy is    13.9233 ev

!    total energy              =     -87.84274070 Ry
     estimated scf accuracy    <       0.00000002 Ry
     smearing contrib. (-TS)   =       0.00004658 Ry
     internal energy E=F+TS    =     -87.84278728 Ry

     The total energy is F=E-TS. E is the sum of the following terms:
     one-electron contribution =     -11.60483258 Ry
     hartree contribution      =      19.34782276 Ry
     xc contribution           =     -14.03834760 Ry
     ewald contribution        =     -81.54742986 Ry

     convergence has been achieved in   6 iterations


     Computing stress (Cartesian axis) and pressure

          total   stress  (Ry/bohr**3)                   (kbar)     P=      -65.44
  -0.00044482  -0.00000000  -0.00000000          -65.44       -0.00       -0.00
  -0.00000000  -0.00044482  -0.00000000           -0.00      -65.44       -0.00
  -0.00000000  -0.00000000  -0.00044482           -0.00       -0.00      -65.44


     BFGS Geometry Optimization
     Energy error            =      1.2E-03 Ry
     Gradient error          =      0.0E+00 Ry/Bohr
     Cell gradient error     =      6.5E+01 kbar

     number of scf cycles    =   1
     number of bfgs steps    =   0

     enthalpy           new  =     -87.8427407008 Ry

     new trust radius        =       0.0197322667 bohr
     new conv_thr            =       0.0000001000 Ry

     new unit-cell volume =     76.11569 a.u.^3 (    11.27918 Ang^3 )
     density =      9.35534 g/cm^3

CELL_PARAMETERS (angstrom)
  -0.000000000   1.779983072   1.779983072
   1.779983072  -0.000000000   1.779983072
   1.779983072   1.779983072  -0.000000000

ATOMIC_POSITIONS (angstrom)
Cu               0.0000000000        0.0000000000        0.0000000000    0   0   0


     Message from routine punch:
     Nothing written, as per user request (disk_io='none')
     NEW-OLD atomic charge density approx. for the potential
     New effective cutoffs (rho, wfc):  324.50   40.89

     total cpu time spent up to now is        5.7 secs

     Self-consistent Calculation

     iteration #  1     ecut=    40.00 Ry     beta= 0.70
     Davidson diagonalization with overlap
     ethr =  1.00E-06,  avg # of iterations =  4.0

     total cpu time spent up to now is        6.8 secs

     total energy              =     -87.84341540 Ry
     estimated scf accuracy    <       0.00001802 Ry

     iteration #  2     ecut=    40.00 Ry     beta= 0.70
     Davidson diagonalization with overlap
     ethr =  1.64E-07,  avg # of iterations =  1.9

     total cpu time spent up to now is        7.7 secs

     total energy              =     -87.84341931 Ry
     estimated scf accuracy    <       0.00001174 Ry

     iteration #  3     ecut=    40.00 Ry     beta= 0.70
     Davidson diagonalization with overlap
     ethr =  1.07E-07,  avg # of iterations =  1.0

     total cpu time spent up to now is        8.3 secs

     total energy              =     -87.84342179 Ry
     estimated scf accuracy    <       0.00000013 Ry

     iteration #  4     ecut=    40.00 Ry     beta= 0.70
     Davidson diagonalization with overlap
     ethr =  1.16E-09,  avg # of iterations =  1.5

     total cpu time spent up to now is        9.0 secs

     End of self-consistent calculation

     Number of k-points >= 100: set verbosity='high' to print the bands.

     the Fermi energy is    14.5728 ev

!    total energy              =     -87.84342181 Ry
     estimated scf accuracy    <          2.3E-10 Ry
     smearing contrib. (-TS)   =       0.00003016 Ry
     internal energy E=F+TS    =     -87.84345197 Ry

     The total energy is F=E-TS. E is the sum of the following terms:
     one-electron contribution =     -10.19814335 Ry
     hartree contribution      =      18.87615576 Ry
     xc contribution           =     -14.05698701 Ry
     ewald contribution        =     -82.46447737 Ry

     convergence has been achieved in   4 iterations


     Computing stress (Cartesian axis) and pressure

          total   stress  (Ry/bohr**3)                   (kbar)     P=      -12.12
  -0.00008241  -0.00000000  -0.00000000          -12.12       -0.00       -0.00
  -0.00000000  -0.00008241  -0.00000000           -0.00      -12.12       -0.00
   0.00000000  -0.00000000  -0.00008241            0.00       -0.00      -12.12

     Energy error            =      6.8E-04 Ry
     Gradient error          =      0.0E+00 Ry/Bohr
     Cell gradient error     =      1.2E+01 kbar

     number of scf cycles    =   2
     number of bfgs steps    =   1

     enthalpy           old  =     -87.8427407008 Ry
     enthalpy           new  =     -87.8434218101 Ry

     CASE: enthalpy          _new < enthalpy          _old

     new trust radius        =       0.0043411807 bohr
     new conv_thr            =       0.0000000010 Ry

     new unit-cell volume =     75.54899 a.u.^3 (    11.19521 Ang^3 )
     density =      9.42552 g/cm^3

CELL_PARAMETERS (angstrom)
  -0.000000000   1.775554572   1.775554572
   1.775554572  -0.000000000   1.775554572
   1.775554572   1.775554572  -0.000000000

ATOMIC_POSITIONS (angstrom)
Cu               0.0000000000        0.0000000000        0.0000000000    0   0   0


     Message from routine punch:
     Nothing written, as per user request (disk_io='none')
     NEW-OLD atomic charge density approx. for the potential
     New effective cutoffs (rho, wfc):  326.12   41.10

     total cpu time spent up to now is        9.3 secs

     Self-consistent Calculation

     iteration #  1     ecut=    40.00 Ry     beta= 0.70
     Davidson diagonalization with overlap
     ethr =  1.00E-06,  avg # of iterations =  3.0

     Threshold (ethr) on eigenvalues was too large:
     Diagonalizing with lowered threshold

     Davidson diagonalization with overlap
     ethr =  7.27E-09,  avg # of iterations =  1.3

     total cpu time spent up to now is       11.0 secs

     total energy              =     -87.84343787 Ry
     estimated scf accuracy    <       0.00000083 Ry

     iteration #  2     ecut=    40.00 Ry     beta= 0.70
     Davidson diagonalization with overlap
     ethr =  7.57E-09,  avg # of iterations =  2.0

     total cpu time spent up to now is       11.6 secs

     total energy              =     -87.84343804 Ry
     estimated scf accuracy    <       0.00000054 Ry

     iteration #  3     ecut=    40.00 Ry     beta= 0.70
     Davidson diagonalization with overlap
     ethr =  4.89E-09,  avg # of iterations =  1.0

     total cpu time spent up to now is       12.2 secs

     total energy              =     -87.84343816 Ry
     estimated scf accuracy    <          6.3E-09 Ry

     iteration #  4     ecut=    40.00 Ry     beta= 0.70
     Davidson diagonalization with overlap
     ethr =  5.73E-11,  avg # of iterations =  1.2

     total cpu time spent up to now is       12.8 secs

     End of self-consistent calculation

     Number of k-points >= 100: set verbosity='high' to print the bands.

     the Fermi energy is    14.7207 ev

!    total energy              =     -87.84343816 Ry
     estimated scf accuracy    <          1.5E-11 Ry
     smearing contrib. (-TS)   =       0.00002618 Ry
     internal energy E=F+TS    =     -87.84346433 Ry

     The total energy is F=E-TS. E is the sum of the following terms:
     one-electron contribution =      -9.88352196 Ry
     hartree contribution      =      18.77149816 Ry
     xc contribution           =     -14.06128438 Ry
     ewald contribution        =     -82.67015616 Ry

     convergence has been achieved in   4 iterations


     Computing stress (Cartesian axis) and pressure

          total   stress  (Ry/bohr**3)                   (kbar)     P=        0.63
   0.00000430  -0.00000000  -0.00000000            0.63       -0.00       -0.00
  -0.00000000   0.00000430  -0.00000000           -0.00        0.63       -0.00
  -0.00000000  -0.00000000   0.00000430           -0.00       -0.00        0.63

     Energy error            =      1.6E-05 Ry
     Gradient error          =      0.0E+00 Ry/Bohr
     Cell gradient error     =      6.3E-01 kbar

     number of scf cycles    =   3
     number of bfgs steps    =   2

     enthalpy           old  =     -87.8434218101 Ry
     enthalpy           new  =     -87.8434381563 Ry

     CASE: enthalpy          _new < enthalpy          _old

     new trust radius        =       0.0002137762 bohr
     new conv_thr            =       0.0000000010 Ry

     new unit-cell volume =     75.57687 a.u.^3 (    11.19934 Ang^3 )
     density =      9.42204 g/cm^3

CELL_PARAMETERS (angstrom)
  -0.000000000   1.775772920   1.775772920
   1.775772920  -0.000000000   1.775772920
   1.775772920   1.775772920  -0.000000000

ATOMIC_POSITIONS (angstrom)
Cu               0.0000000000        0.0000000000        0.0000000000    0   0   0


     Message from routine punch:
     Nothing written, as per user request (disk_io='none')
     NEW-OLD atomic charge density approx. for the potential
     New effective cutoffs (rho, wfc):  326.04   41.09

     total cpu time spent up to now is       13.1 secs

     Self-consistent Calculation

     iteration #  1     ecut=    40.00 Ry     beta= 0.70
     Davidson diagonalization with overlap
     ethr =  1.00E-06,  avg # of iterations =  2.0

     Threshold (ethr) on eigenvalues was too large:
     Diagonalizing with lowered threshold

     Davidson diagonalization with overlap
     ethr =  2.04E-11,  avg # of iterations =  2.1

     total cpu time spent up to now is       14.6 secs

     total energy              =     -87.84343964 Ry
     estimated scf accuracy    <          2.3E-09 Ry

     iteration #  2     ecut=    40.00 Ry     beta= 0.70
     Davidson diagonalization with overlap
     ethr =  2.14E-11,  avg # of iterations =  2.0

     total cpu time spent up to now is       15.3 secs

     total energy              =     -87.84343964 Ry
     estimated scf accuracy    <          1.6E-09 Ry

     iteration #  3     ecut=    40.00 Ry     beta= 0.70
     Davidson diagonalization with overlap
     ethr =  1.41E-11,  avg # of iterations =  1.0

     total cpu time spent up to now is       15.9 secs

     End of self-consistent calculation

     Number of k-points >= 100: set verbosity='high' to print the bands.

     the Fermi energy is    14.7133 ev

!    total energy              =     -87.84343823 Ry
     estimated scf accuracy    <          1.5E-11 Ry
     smearing contrib. (-TS)   =       0.00002638 Ry
     internal energy E=F+TS    =     -87.84346461 Ry

     The total energy is F=E-TS. E is the sum of the following terms:
     one-electron contribution =      -9.89908255 Ry
     hartree contribution      =      18.77668456 Ry
     xc contribution           =     -14.06107552 Ry
     ewald contribution        =     -82.65999109 Ry

     convergence has been achieved in   3 iterations


     Computing stress (Cartesian axis) and pressure

          total   stress  (Ry/bohr**3)                   (kbar)     P=        0.11
   0.00000076   0.00000000   0.00000000            0.11        0.00        0.00
   0.00000000   0.00000076  -0.00000000            0.00        0.11       -0.00
   0.00000000   0.00000000   0.00000076            0.00        0.00        0.11

     Energy error            =      7.1E-08 Ry
     Gradient error          =      0.0E+00 Ry/Bohr
     Cell gradient error     =      1.1E-01 kbar

     bfgs converged in   4 scf cycles and   3 bfgs steps
     (criteria: energy <  1.0E-04 Ry, force <  1.0E-03 Ry/Bohr, cell <  5.0E-01 kbar)

     End of BFGS Geometry Optimization

     Final enthalpy           =     -87.8434382276 Ry

     File /home/bond/Work/Lab4/Problem3/Cu_nk_12/pwscf.bfgs deleted, as requested
Begin final coordinates
     new unit-cell volume =     75.57687 a.u.^3 (    11.19934 Ang^3 )
     density =      9.42204 g/cm^3

CELL_PARAMETERS (angstrom)
  -0.000000000   1.775772920   1.775772920
   1.775772920  -0.000000000   1.775772920
   1.775772920   1.775772920  -0.000000000

ATOMIC_POSITIONS (angstrom)
Cu               0.0000000000        0.0000000000        0.0000000000    0   0   0
End final coordinates


     Message from routine punch:
     Nothing written, as per user request (disk_io='none')

     Final scf calculation at the relaxed structure.
     The G-vectors are recalculated for the final unit cell
     Results may differ from those at the preceding step.

     Parallelization info
     --------------------
     sticks:   dense  smooth     PW     G-vecs:    dense   smooth      PW
     Min         249     126     45                 3694     1318     304
     Max         250     127     46                 3697     1319     305
     Sum         499     253     91                 7391     2637     609

     Using Slab Decomposition



     bravais-lattice index     =            0
     lattice parameter (alat)  =       4.8105  a.u.
     unit-cell volume          =      75.5769 (a.u.)^3
     number of atoms/cell      =            1
     number of atomic types    =            1
     number of electrons       =        11.00
     number of Kohn-Sham states=           10
     kinetic-energy cutoff     =      40.0000  Ry
     charge density cutoff     =     320.0000  Ry
     scf convergence threshold =      1.0E-09
     mixing beta               =       0.7000
     number of iterations used =            8  plain     mixing
     press convergence thresh. =      5.0E-01
     Exchange-correlation=  SLA  PZ   NOGX NOGC
                           (   1   1   0   0   0   0   0)

     celldm(1)=   4.810457  celldm(2)=   0.000000  celldm(3)=   0.000000
     celldm(4)=   0.000000  celldm(5)=   0.000000  celldm(6)=   0.000000

     crystal axes: (cart. coord. in units of alat)
               a(1) = (  -0.000000   0.697589   0.697589 )  
               a(2) = (   0.697589  -0.000000   0.697589 )  
               a(3) = (   0.697589   0.697589  -0.000000 )  

     reciprocal axes: (cart. coord. in units 2 pi/alat)
               b(1) = ( -0.716754  0.716754  0.716754 )  
               b(2) = (  0.716754 -0.716754  0.716754 )  
               b(3) = (  0.716754  0.716754 -0.716754 )  


     PseudoPot. # 1 for Cu read from file:
     /home/bond/Software/QE/qe-7.4.1/pseudo/Cu.pz-d-rrkjus.UPF
     MD5 check sum: fd38ae683e239c95a66f426e1f8e5fc7
     Pseudo is Ultrasoft, Zval = 11.0
     Generated by new atomic code, or converted to UPF format
     Using radial grid of  899 points,  3 beta functions with: 
                l(1) =   2
                l(2) =   2
                l(3) =   1
     Q(r) pseudized with 0 coefficients 


     atomic species   valence    mass     pseudopotential
     Cu               11.00    63.54600     Cu( 1.00)

     48 Sym. Ops., with inversion, found



   Cartesian axes

     site n.     atom                  positions (alat units)
         1        Cu     tau(   1) = (   0.0000000   0.0000000   0.0000000  )

     number of k points=   182  Methfessel-Paxton smearing, width (Ry)=  0.0200

     Number of k-points >= 100: set verbosity='high' to print them.

     Dense  grid:     7391 G-vectors     FFT dimensions: (  27,  27,  27)

     Smooth grid:     2637 G-vectors     FFT dimensions: (  20,  20,  20)

     Estimated max dynamical RAM per process >      14.42 MB

     Estimated total dynamical RAM >      28.83 MB

     Initial potential from superposition of free atoms

     starting charge      10.9997, renormalised to      11.0000
     Starting wfcs are    6 randomized atomic wfcs +    4 random wfcs

     total cpu time spent up to now is       16.4 secs

     Self-consistent Calculation

     iteration #  1     ecut=    40.00 Ry     beta= 0.70
     Davidson diagonalization with overlap
     c_bands:  1 eigenvalues not converged
     c_bands:  1 eigenvalues not converged
     c_bands:  1 eigenvalues not converged
     c_bands:  1 eigenvalues not converged
     ethr =  1.00E-06,  avg # of iterations = 13.4

     total cpu time spent up to now is       19.3 secs

     total energy              =     -87.73097912 Ry
     estimated scf accuracy    <       0.24426857 Ry

     iteration #  2     ecut=    40.00 Ry     beta= 0.70
     Davidson diagonalization with overlap
     ethr =  2.22E-03,  avg # of iterations =  2.0

     total cpu time spent up to now is       20.0 secs

     total energy              =     -87.81268324 Ry
     estimated scf accuracy    <       0.18987158 Ry

     iteration #  3     ecut=    40.00 Ry     beta= 0.70
     Davidson diagonalization with overlap
     ethr =  1.73E-03,  avg # of iterations =  1.0

     total cpu time spent up to now is       20.6 secs

     total energy              =     -87.84306653 Ry
     estimated scf accuracy    <       0.00096178 Ry

     iteration #  4     ecut=    40.00 Ry     beta= 0.70
     Davidson diagonalization with overlap
     ethr =  8.74E-06,  avg # of iterations =  2.0

     total cpu time spent up to now is       21.4 secs

     total energy              =     -87.84342865 Ry
     estimated scf accuracy    <       0.00002906 Ry

     iteration #  5     ecut=    40.00 Ry     beta= 0.70
     Davidson diagonalization with overlap
     ethr =  2.64E-07,  avg # of iterations =  1.2

     total cpu time spent up to now is       22.0 secs

     total energy              =     -87.84342623 Ry
     estimated scf accuracy    <       0.00000814 Ry

     iteration #  6     ecut=    40.00 Ry     beta= 0.70
     Davidson diagonalization with overlap
     ethr =  7.40E-08,  avg # of iterations =  1.0

     total cpu time spent up to now is       22.6 secs

     total energy              =     -87.84342766 Ry
     estimated scf accuracy    <       0.00000001 Ry

     iteration #  7     ecut=    40.00 Ry     beta= 0.70
     Davidson diagonalization with overlap
     ethr =  1.36E-10,  avg # of iterations =  2.3

     total cpu time spent up to now is       23.3 secs

     End of self-consistent calculation

     Number of k-points >= 100: set verbosity='high' to print the bands.

     the Fermi energy is    14.7134 ev

!    total energy              =     -87.84342767 Ry
     estimated scf accuracy    <          1.5E-10 Ry
     smearing contrib. (-TS)   =       0.00002637 Ry
     internal energy E=F+TS    =     -87.84345404 Ry

     The total energy is F=E-TS. E is the sum of the following terms:
     one-electron contribution =      -9.89904565 Ry
     hartree contribution      =      18.77666594 Ry
     xc contribution           =     -14.06108324 Ry
     ewald contribution        =     -82.65999109 Ry

     convergence has been achieved in   7 iterations


     Computing stress (Cartesian axis) and pressure

          total   stress  (Ry/bohr**3)                   (kbar)     P=       -0.32
  -0.00000214   0.00000000   0.00000000           -0.32        0.00        0.00
   0.00000000  -0.00000214   0.00000000            0.00       -0.32        0.00
   0.00000000   0.00000000  -0.00000214            0.00        0.00       -0.32

     Message from routine punch:
     Nothing written, as per user request (disk_io='none')

     init_run     :      1.06s CPU      1.15s WALL (       2 calls)
     electrons    :     19.12s CPU     20.74s WALL (       5 calls)
     update_pot   :      0.01s CPU      0.01s WALL (       3 calls)
     stress       :      1.57s CPU      1.59s WALL (       5 calls)

     Called by init_run:
     wfcinit      :      0.46s CPU      0.52s WALL (       2 calls)
     potinit      :      0.18s CPU      0.18s WALL (       2 calls)
     hinit0       :      0.38s CPU      0.39s WALL (       2 calls)

     Called by electrons:
     c_bands      :     16.35s CPU     17.79s WALL (      26 calls)
     sum_band     :      2.50s CPU      2.68s WALL (      26 calls)
     v_of_rho     :      0.03s CPU      0.03s WALL (      29 calls)
     newd         :      0.26s CPU      0.28s WALL (      29 calls)
     mix_rho      :      0.01s CPU      0.01s WALL (      26 calls)

     Called by c_bands:
     init_us_2    :      0.54s CPU      0.58s WALL (   10738 calls)
     cegterg      :     15.41s CPU     16.73s WALL (    4732 calls)

     Called by *egterg:
     cdiaghg      :      2.10s CPU      2.29s WALL (   14865 calls)
     h_psi        :     11.37s CPU     12.37s WALL (   16139 calls)
     s_psi        :      0.18s CPU      0.19s WALL (   16139 calls)
     g_psi        :      0.08s CPU      0.09s WALL (   11043 calls)

     Called by h_psi:
     h_psi:calbec :      0.57s CPU      0.62s WALL (   16139 calls)
     vloc_psi     :     10.40s CPU     11.31s WALL (   16139 calls)
     add_vuspsi   :      0.21s CPU      0.23s WALL (   16139 calls)

     General routines
     calbec       :      0.97s CPU      1.03s WALL (   32701 calls)
     fft          :      0.12s CPU      0.12s WALL (     179 calls)
     ffts         :      0.15s CPU      0.15s WALL (      55 calls)
     fftw         :      9.66s CPU     10.50s WALL (  301410 calls)
     interpolate  :      0.16s CPU      0.16s WALL (      29 calls)

     Parallel routines

     PWSCF        :     21.88s CPU     23.63s WALL


   This run was terminated on:  18: 2:20  21Oct2025            

=------------------------------------------------------------------------------=
   JOB DONE.
=------------------------------------------------------------------------------=
