LAMMPS (22 Jul 2025 - Update 1)
Reading data file ...
  orthogonal box = (0 0 0) to (8.7451919 8.7451919 22.428831)
  1 by 1 by 1 MPI processor grid
  reading atoms ...
  72 atoms
  read_data CPU = 0.001 seconds
WARNING: No fixes with time integration, atoms won't move
For more information see https://docs.lammps.org/err0028 (../verlet.cpp:60)
Generated 0 of 0 mixed pair_coeff terms from geometric mixing rule
Neighbor list info ...
  update: every = 1 steps, delay = 0 steps, check = yes
  max neighbors/atom: 2000, page size: 100000
  master list distance cutoff = 6.5
  ghost atom cutoff = 6.5
  binsize = 3.25, bins = 3 3 7
  1 neighbor lists, perpetual/occasional/extra = 1 0 0
  (1) pair lj/cut, perpetual
      attributes: half, newton on
      pair build: half/bin/atomonly/newton
      stencil: half/bin/3d
      bin: standard
Setting up Verlet run ...
  Unit style    : metal
  Current step  : 0
  Time step     : 0.001
Per MPI rank memory allocation (min/avg/max) = 3.055 | 3.055 | 3.055 Mbytes
   Step         PotEng           Lx             Ly             Lz           Press           Pxx            Pyy            Pzz      
         0  -173.8839       8.7451919      8.7451919      22.428831      0.052795663   -2262.1697     -2262.1697      4524.4978    
Loop time of 1.489e-06 on 1 procs for 0 steps with 72 atoms

201.5% CPU use with 1 MPI tasks x no OpenMP threads

MPI task timing breakdown:
Section |  min time  |  avg time  |  max time  |%varavg| %total
---------------------------------------------------------------
Pair    | 0          | 0          | 0          |   0.0 |  0.00
Neigh   | 0          | 0          | 0          |   0.0 |  0.00
Comm    | 0          | 0          | 0          |   0.0 |  0.00
Output  | 0          | 0          | 0          |   0.0 |  0.00
Modify  | 0          | 0          | 0          |   0.0 |  0.00
Other   |            | 1.489e-06  |            |       |100.00

Nlocal:             72 ave          72 max          72 min
Histogram: 1 0 0 0 0 0 0 0 0 0
Nghost:            380 ave         380 max         380 min
Histogram: 1 0 0 0 0 0 0 0 0 0
Neighs:           1674 ave        1674 max        1674 min
Histogram: 1 0 0 0 0 0 0 0 0 0

Total # of neighbors = 1674
Ave neighs/atom = 23.25
Neighbor list builds = 0
Dangerous builds = 0
Generated 0 of 0 mixed pair_coeff terms from geometric mixing rule
Setting up cg style minimization ...
  Unit style    : metal
  Current step  : 0
WARNING: Energy due to 3 extra global DOFs will be included in minimizer energies
 (../min.cpp:222)
Per MPI rank memory allocation (min/avg/max) = 4.18 | 4.18 | 4.18 Mbytes
   Step         PotEng           Lx             Ly             Lz           Press           Pxx            Pyy            Pzz      
         0  -173.8839       8.7451919      8.7451919      22.428831      0.052795663   -2262.1697     -2262.1697      4524.4978    
        39  -173.91678      8.724278       8.724278       22.428831      2.3349203      0.72778247     0.72778247     5.5491959    
Loop time of 0.00260597 on 1 procs for 39 steps with 72 atoms

95.2% CPU use with 1 MPI tasks x no OpenMP threads

Minimization stats:
  Stopping criterion = energy tolerance
  Energy initial, next-to-last, final = 
     -173.883903424429  -173.916778483489   -173.91677849047
  Force two-norm initial, final = 3.5135549 0.0027889545
  Force max component initial, final = 2.4219219 0.00077731439
  Final line search alpha, max atom move = 0.25233751 0.00019614558
  Iterations, force evaluations = 39 78

MPI task timing breakdown:
Section |  min time  |  avg time  |  max time  |%varavg| %total
---------------------------------------------------------------
Pair    | 0.0015383  | 0.0015383  | 0.0015383  |   0.0 | 59.03
Neigh   | 0          | 0          | 0          |   0.0 |  0.00
Comm    | 0.00015023 | 0.00015023 | 0.00015023 |   0.0 |  5.77
Output  | 0          | 0          | 0          |   0.0 |  0.00
Modify  | 0          | 0          | 0          |   0.0 |  0.00
Other   |            | 0.0009174  |            |       | 35.20

Nlocal:             72 ave          72 max          72 min
Histogram: 1 0 0 0 0 0 0 0 0 0
Nghost:            380 ave         380 max         380 min
Histogram: 1 0 0 0 0 0 0 0 0 0
Neighs:           1674 ave        1674 max        1674 min
Histogram: 1 0 0 0 0 0 0 0 0 0

Total # of neighbors = 1674
Ave neighs/atom = 23.25
Neighbor list builds = 0
Dangerous builds = 0
Total energy (eV) = -173.91677849047
Number of atoms = 72
Lattice constant (Angstoms) = 8.72427803109042
Total wall time: 0:00:00
