LAMMPS (22 Jul 2025 - Update 1)
Reading data file ...
  orthogonal box = (0 0 0) to (37.102707 37.102707 37.102707)
  1 by 1 by 1 MPI processor grid
  reading atoms ...
  2915 atoms
  read_data CPU = 0.009 seconds
WARNING: No fixes with time integration, atoms won't move
For more information see https://docs.lammps.org/err0028 (../verlet.cpp:60)
Generated 0 of 0 mixed pair_coeff terms from geometric mixing rule
Neighbor list info ...
  update: every = 1 steps, delay = 0 steps, check = yes
  max neighbors/atom: 2000, page size: 100000
  master list distance cutoff = 6.5
  ghost atom cutoff = 6.5
  binsize = 3.25, bins = 12 12 12
  1 neighbor lists, perpetual/occasional/extra = 1 0 0
  (1) pair lj/cut, perpetual
      attributes: half, newton on
      pair build: half/bin/atomonly/newton
      stencil: half/bin/3d
      bin: standard
Setting up Verlet run ...
  Unit style    : metal
  Current step  : 0
  Time step     : 0.001
Per MPI rank memory allocation (min/avg/max) = 3.292 | 3.292 | 3.292 Mbytes
   Step         PotEng           Lx             Ly             Lz           Press           Pxx            Pyy            Pzz      
         0  -7677.238       37.102707      37.102707      37.102707     -0.0037823179  -0.0034840117  -0.0043789303  -0.0034840118 
Loop time of 1.618e-06 on 1 procs for 0 steps with 2915 atoms

123.6% CPU use with 1 MPI tasks x no OpenMP threads

MPI task timing breakdown:
Section |  min time  |  avg time  |  max time  |%varavg| %total
---------------------------------------------------------------
Pair    | 0          | 0          | 0          |   0.0 |  0.00
Neigh   | 0          | 0          | 0          |   0.0 |  0.00
Comm    | 0          | 0          | 0          |   0.0 |  0.00
Output  | 0          | 0          | 0          |   0.0 |  0.00
Modify  | 0          | 0          | 0          |   0.0 |  0.00
Other   |            | 1.618e-06  |            |       |100.00

Nlocal:           2915 ave        2915 max        2915 min
Histogram: 1 0 0 0 0 0 0 0 0 0
Nghost:           4889 ave        4889 max        4889 min
Histogram: 1 0 0 0 0 0 0 0 0 0
Neighs:          78678 ave       78678 max       78678 min
Histogram: 1 0 0 0 0 0 0 0 0 0

Total # of neighbors = 78678
Ave neighs/atom = 26.990738
Neighbor list builds = 0
Dangerous builds = 0
Generated 0 of 0 mixed pair_coeff terms from geometric mixing rule
Setting up cg style minimization ...
  Unit style    : metal
  Current step  : 0
WARNING: Energy due to 1 extra global DOFs will be included in minimizer energies
 (../min.cpp:222)
Per MPI rank memory allocation (min/avg/max) = 4.417 | 4.417 | 4.417 Mbytes
   Step         PotEng           Lx             Ly             Lz           Press           Pxx            Pyy            Pzz      
         0  -7677.238       37.102707      37.102707      37.102707     -0.0037823179  -0.0034840117  -0.0043789303  -0.0034840118 
        18  -7677.2461      37.102644      37.102644      37.102644      0.071599399    0.07165482     0.071488558    0.07165482   
Loop time of 0.0424909 on 1 procs for 18 steps with 2915 atoms

100.0% CPU use with 1 MPI tasks x no OpenMP threads

Minimization stats:
  Stopping criterion = energy tolerance
  Energy initial, next-to-last, final = 
     -7677.23795393224  -7677.24606111569   -7677.2460611216
  Force two-norm initial, final = 0.45235385 0.024597629
  Force max component initial, final = 0.13065308 0.0068475559
  Final line search alpha, max atom move = 0.013771112 9.4298461e-05
  Iterations, force evaluations = 18 36

MPI task timing breakdown:
Section |  min time  |  avg time  |  max time  |%varavg| %total
---------------------------------------------------------------
Pair    | 0.034903   | 0.034903   | 0.034903   |   0.0 | 82.14
Neigh   | 0          | 0          | 0          |   0.0 |  0.00
Comm    | 0.00099878 | 0.00099878 | 0.00099878 |   0.0 |  2.35
Output  | 0          | 0          | 0          |   0.0 |  0.00
Modify  | 0          | 0          | 0          |   0.0 |  0.00
Other   |            | 0.006589   |            |       | 15.51

Nlocal:           2915 ave        2915 max        2915 min
Histogram: 1 0 0 0 0 0 0 0 0 0
Nghost:           4889 ave        4889 max        4889 min
Histogram: 1 0 0 0 0 0 0 0 0 0
Neighs:          78678 ave       78678 max       78678 min
Histogram: 1 0 0 0 0 0 0 0 0 0

Total # of neighbors = 78678
Ave neighs/atom = 26.990738
Neighbor list builds = 0
Dangerous builds = 0
Total energy (eV) = -7677.2460611216
Number of atoms = 2915
Lattice constant (Angstoms) = 37.1026438574566
Total wall time: 0:00:00
