LAMMPS (22 Jul 2025 - Update 1)
Reading data file ...
  orthogonal box = (0 0 0) to (4.0816549 4.0816549 4.0816549)
  1 by 1 by 1 MPI processor grid
  reading atoms ...
  3 atoms
  read_data CPU = 0.005 seconds
Reading eam/alloy potential file /home/bond/Software/LAMMPS/lammps-22Jul2025/potentials/Al_zhou.eam.alloy with DATE: 2007-10-12
WARNING: No fixes with time integration, atoms won't move
For more information see https://docs.lammps.org/err0028 (../verlet.cpp:60)
Neighbor list info ...
  update: every = 1 steps, delay = 0 steps, check = yes
  max neighbors/atom: 2000, page size: 100000
  master list distance cutoff = 12.1025
  ghost atom cutoff = 12.1025
  binsize = 6.05125, bins = 1 1 1
  1 neighbor lists, perpetual/occasional/extra = 1 0 0
  (1) pair eam/alloy, perpetual
      attributes: half, newton on
      pair build: half/bin/atomonly/newton
      stencil: half/bin/3d
      bin: standard
Setting up Verlet run ...
  Unit style    : metal
  Current step  : 0
  Time step     : 0.001
Per MPI rank memory allocation (min/avg/max) = 3.242 | 3.242 | 3.242 Mbytes
   Step         PotEng           Lx             Ly             Lz           Press           Pxx            Pyy            Pzz      
         0  -9.8409559      4.0816549      4.0816549      4.0816549     -75863.187     -75863.187     -75863.187     -75863.187    
Loop time of 2.898e-06 on 1 procs for 0 steps with 3 atoms

69.0% CPU use with 1 MPI tasks x no OpenMP threads

MPI task timing breakdown:
Section |  min time  |  avg time  |  max time  |%varavg| %total
---------------------------------------------------------------
Pair    | 0          | 0          | 0          |   0.0 |  0.00
Neigh   | 0          | 0          | 0          |   0.0 |  0.00
Comm    | 0          | 0          | 0          |   0.0 |  0.00
Output  | 0          | 0          | 0          |   0.0 |  0.00
Modify  | 0          | 0          | 0          |   0.0 |  0.00
Other   |            | 2.898e-06  |            |       |100.00

Nlocal:              3 ave           3 max           3 min
Histogram: 1 0 0 0 0 0 0 0 0 0
Nghost:            801 ave         801 max         801 min
Histogram: 1 0 0 0 0 0 0 0 0 0
Neighs:            474 ave         474 max         474 min
Histogram: 1 0 0 0 0 0 0 0 0 0

Total # of neighbors = 474
Ave neighs/atom = 158
Neighbor list builds = 0
Dangerous builds = 0
Setting up cg style minimization ...
  Unit style    : metal
  Current step  : 0
WARNING: Energy due to 1 extra global DOFs will be included in minimizer energies
 (../min.cpp:222)
Per MPI rank memory allocation (min/avg/max) = 4.367 | 4.367 | 4.367 Mbytes
   Step         PotEng           Lx             Ly             Lz           Press           Pxx            Pyy            Pzz      
         0  -9.8409559      4.0816549      4.0816549      4.0816549     -75863.187     -75863.187     -75863.187     -75863.187    
        41  -10.029404      3.919724       3.919724       3.919724       2.234077       2.234077       2.234077       2.234077     
Loop time of 0.002015 on 1 procs for 41 steps with 3 atoms

88.2% CPU use with 1 MPI tasks x no OpenMP threads

Minimization stats:
  Stopping criterion = energy tolerance
  Energy initial, next-to-last, final = 
     -9.84095592038731  -10.0294039395878  -10.0294039396064
  Force two-norm initial, final = 9.6594152 0.00026238817
  Force max component initial, final = 9.6594152 0.00026233503
  Final line search alpha, max atom move = 1 0.00026233503
  Iterations, force evaluations = 41 43

MPI task timing breakdown:
Section |  min time  |  avg time  |  max time  |%varavg| %total
---------------------------------------------------------------
Pair    | 0.0012644  | 0.0012644  | 0.0012644  |   0.0 | 62.75
Neigh   | 0          | 0          | 0          |   0.0 |  0.00
Comm    | 0.00017294 | 0.00017294 | 0.00017294 |   0.0 |  8.58
Output  | 0          | 0          | 0          |   0.0 |  0.00
Modify  | 0          | 0          | 0          |   0.0 |  0.00
Other   |            | 0.0005777  |            |       | 28.67

Nlocal:              3 ave           3 max           3 min
Histogram: 1 0 0 0 0 0 0 0 0 0
Nghost:            801 ave         801 max         801 min
Histogram: 1 0 0 0 0 0 0 0 0 0
Neighs:            474 ave         474 max         474 min
Histogram: 1 0 0 0 0 0 0 0 0 0

Total # of neighbors = 474
Ave neighs/atom = 158
Neighbor list builds = 0
Dangerous builds = 0
Total energy (eV) = -10.0294039396064
Number of atoms = 3
Lattice constant (Angstoms) = 3.91972400493718
Total wall time: 0:00:00
