
     Program PWSCF v.7.4.1 starts on 21Oct2025 at 18: 5:29 

     This program is part of the open-source Quantum ESPRESSO suite
     for quantum simulation of materials; please cite
         "P. Giannozzi et al., J. Phys.:Condens. Matter 21 395502 (2009);
         "P. Giannozzi et al., J. Phys.:Condens. Matter 29 465901 (2017);
         "P. Giannozzi et al., J. Chem. Phys. 152 154105 (2020);
          URL http://www.quantum-espresso.org", 
     in publications or presentations arising from this work. More details at
     http://www.quantum-espresso.org/quote

     Parallel version (MPI), running on     2 processors

     MPI processes distributed on     1 nodes
     292 MiB available memory on the printing compute node when the environment starts

     Waiting for input...
     Reading input from standard input

     Current dimensions of program PWSCF are:
     Max number of different atomic species (ntypx) = 10
     Max number of k-points (npk) =  40000
     Max angular momentum in pseudopotentials (lmaxx) =  4
     Message from routine setup:
     using ibrav=0 with symmetry is DISCOURAGED, use correct ibrav instead

     R & G space division:  proc/nbgrp/npool/nimage =       2
     Subspace diagonalization in iterative solution of the eigenvalue problem:
     a serial algorithm will be used


     Parallelization info
     --------------------
     sticks:   dense  smooth     PW     G-vecs:    dense   smooth      PW
     Min         318     156     60                 5208     1847     410
     Max         319     157     61                 5209     1848     411
     Sum         637     313    121                10417     3695     821

     Using Slab Decomposition



     bravais-lattice index     =            0
     lattice parameter (alat)  =       5.3450  a.u.
     unit-cell volume          =     107.9734 (a.u.)^3
     number of atoms/cell      =            1
     number of atomic types    =            1
     number of electrons       =        11.00
     number of Kohn-Sham states=           10
     kinetic-energy cutoff     =      40.0000  Ry
     charge density cutoff     =     320.0000  Ry
     scf convergence threshold =      1.0E-07
     mixing beta               =       0.7000
     number of iterations used =            8  plain     mixing
     energy convergence thresh.=      1.0E-04
     force convergence thresh. =      1.0E-03
     press convergence thresh. =      5.0E-01
     Exchange-correlation=  SLA  PZ   NOGX NOGC
                           (   1   1   0   0   0   0   0)
     nstep                     =           50


     celldm(1)=   5.344953  celldm(2)=   0.000000  celldm(3)=   0.000000
     celldm(4)=   0.000000  celldm(5)=   0.000000  celldm(6)=   0.000000

     crystal axes: (cart. coord. in units of alat)
               a(1) = (   0.000000   0.707107   0.707107 )  
               a(2) = (   0.707107   0.000000   0.707107 )  
               a(3) = (   0.707107   0.707107   0.000000 )  

     reciprocal axes: (cart. coord. in units 2 pi/alat)
               b(1) = ( -0.707107  0.707107  0.707107 )  
               b(2) = (  0.707107 -0.707107  0.707107 )  
               b(3) = (  0.707107  0.707107 -0.707107 )  


     PseudoPot. # 1 for Au read from file:
     /home/bond/Software/QE/qe-7.4.1/pseudo/Au.pz-d-rrkjus.UPF
     MD5 check sum: 424ffd4ac9c90487cbadcd287136c95b
     Pseudo is Ultrasoft, Zval = 11.0
     Generated by new atomic code, or converted to UPF format
     Using radial grid of 1279 points,  3 beta functions with: 
                l(1) =   2
                l(2) =   2
                l(3) =   1
     Q(r) pseudized with 0 coefficients 


     atomic species   valence    mass     pseudopotential
     Au               11.00   196.96657     Au( 1.00)

     48 Sym. Ops., with inversion, found



   Cartesian axes

     site n.     atom                  positions (alat units)
         1        Au     tau(   1) = (   0.0000000   0.0000000   0.0000000  )

     number of k points=   280  Methfessel-Paxton smearing, width (Ry)=  0.0200

     Number of k-points >= 100: set verbosity='high' to print them.

     Dense  grid:    10417 G-vectors     FFT dimensions: (  32,  32,  32)

     Smooth grid:     3695 G-vectors     FFT dimensions: (  24,  24,  24)

     Estimated max dynamical RAM per process >      23.61 MB

     Estimated total dynamical RAM >      47.22 MB

     Initial potential from superposition of free atoms

     starting charge      10.9999, renormalised to      11.0000
     Starting wfcs are    9 randomized atomic wfcs +    1 random wfcs

     total cpu time spent up to now is        2.1 secs

     Self-consistent Calculation

     iteration #  1     ecut=    40.00 Ry     beta= 0.70
     Davidson diagonalization with overlap
     ethr =  1.00E-02,  avg # of iterations =  5.2

     Threshold (ethr) on eigenvalues was too large:
     Diagonalizing with lowered threshold

     Davidson diagonalization with overlap
     ethr =  6.92E-04,  avg # of iterations =  1.1

     total cpu time spent up to now is        7.2 secs

     total energy              =     -66.84546448 Ry
     estimated scf accuracy    <       0.07720448 Ry

     iteration #  2     ecut=    40.00 Ry     beta= 0.70
     Davidson diagonalization with overlap
     ethr =  7.02E-04,  avg # of iterations =  2.0

     total cpu time spent up to now is        9.8 secs

     total energy              =     -66.86830604 Ry
     estimated scf accuracy    <       0.02440782 Ry

     iteration #  3     ecut=    40.00 Ry     beta= 0.70
     Davidson diagonalization with overlap
     ethr =  2.22E-04,  avg # of iterations =  1.6

     total cpu time spent up to now is       12.0 secs

     total energy              =     -66.87298846 Ry
     estimated scf accuracy    <       0.00002811 Ry

     iteration #  4     ecut=    40.00 Ry     beta= 0.70
     Davidson diagonalization with overlap
     ethr =  2.56E-07,  avg # of iterations =  3.0

     total cpu time spent up to now is       14.6 secs

     total energy              =     -66.87300604 Ry
     estimated scf accuracy    <       0.00000304 Ry

     iteration #  5     ecut=    40.00 Ry     beta= 0.70
     Davidson diagonalization with overlap
     ethr =  2.77E-08,  avg # of iterations =  1.0

     total cpu time spent up to now is       16.8 secs

     End of self-consistent calculation

     Number of k-points >= 100: set verbosity='high' to print the bands.

     the Fermi energy is    17.1013 ev

!    total energy              =     -66.87300620 Ry
     estimated scf accuracy    <       0.00000008 Ry
     smearing contrib. (-TS)   =       0.00003072 Ry
     internal energy E=F+TS    =     -66.87303692 Ry

     The total energy is F=E-TS. E is the sum of the following terms:
     one-electron contribution =      10.18331511 Ry
     hartree contribution      =       6.83044259 Ry
     xc contribution           =     -10.49410774 Ry
     ewald contribution        =     -73.39268687 Ry

     convergence has been achieved in   5 iterations


     Computing stress (Cartesian axis) and pressure

          total   stress  (Ry/bohr**3)                   (kbar)     P=       73.01
   0.00049628  -0.00000000   0.00000000           73.01       -0.00        0.00
   0.00000000   0.00049628   0.00000000            0.00       73.01        0.00
   0.00000000   0.00000000   0.00049628            0.00        0.00       73.01


     BFGS Geometry Optimization
     Energy error            =      2.0E-03 Ry
     Gradient error          =      0.0E+00 Ry/Bohr
     Cell gradient error     =      7.3E+01 kbar

     number of scf cycles    =   1
     number of bfgs steps    =   0

     enthalpy           new  =     -66.8730062009 Ry

     new trust radius        =       0.0257842352 bohr
     new conv_thr            =       0.0000001000 Ry

     new unit-cell volume =    112.04229 a.u.^3 (    16.60295 Ang^3 )
     density =     19.69955 g/cm^3

CELL_PARAMETERS (angstrom)
   0.000000000   2.024813953   2.024813953
   2.024813953   0.000000000   2.024813953
   2.024813953   2.024813953   0.000000000

ATOMIC_POSITIONS (angstrom)
Au               0.0000000000        0.0000000000        0.0000000000    0   0   0


     Message from routine punch:
     Nothing written, as per user request (disk_io='none')
     NEW-OLD atomic charge density approx. for the potential
     New effective cutoffs (rho, wfc):  310.09   39.03

     total cpu time spent up to now is       17.4 secs

     Self-consistent Calculation

     iteration #  1     ecut=    40.00 Ry     beta= 0.70
     Davidson diagonalization with overlap
     ethr =  1.00E-06,  avg # of iterations =  3.6

     Threshold (ethr) on eigenvalues was too large:
     Diagonalizing with lowered threshold

     Davidson diagonalization with overlap
     ethr =  7.22E-09,  avg # of iterations =  1.2

     total cpu time spent up to now is       22.8 secs

     total energy              =     -66.87396746 Ry
     estimated scf accuracy    <       0.00000077 Ry

     iteration #  2     ecut=    40.00 Ry     beta= 0.70
     Davidson diagonalization with overlap
     ethr =  7.02E-09,  avg # of iterations =  2.0

     total cpu time spent up to now is       25.1 secs

     total energy              =     -66.87396758 Ry
     estimated scf accuracy    <       0.00000017 Ry

     iteration #  3     ecut=    40.00 Ry     beta= 0.70
     Davidson diagonalization with overlap
     ethr =  1.56E-09,  avg # of iterations =  1.9

     total cpu time spent up to now is       27.3 secs

     End of self-consistent calculation

     Number of k-points >= 100: set verbosity='high' to print the bands.

     the Fermi energy is    16.2000 ev

!    total energy              =     -66.87396762 Ry
     estimated scf accuracy    <       0.00000001 Ry
     smearing contrib. (-TS)   =       0.00006265 Ry
     internal energy E=F+TS    =     -66.87403027 Ry

     The total energy is F=E-TS. E is the sum of the following terms:
     one-electron contribution =       8.92836413 Ry
     hartree contribution      =       7.15192281 Ry
     xc contribution           =     -10.46105258 Ry
     ewald contribution        =     -72.49326463 Ry

     convergence has been achieved in   3 iterations


     Computing stress (Cartesian axis) and pressure

          total   stress  (Ry/bohr**3)                   (kbar)     P=       -3.41
  -0.00002315  -0.00000000  -0.00000000           -3.41       -0.00       -0.00
  -0.00000000  -0.00002315  -0.00000000           -0.00       -3.41       -0.00
  -0.00000000  -0.00000000  -0.00002315           -0.00       -0.00       -3.41

     Energy error            =      9.6E-04 Ry
     Gradient error          =      0.0E+00 Ry/Bohr
     Cell gradient error     =      3.4E+00 kbar

     number of scf cycles    =   2
     number of bfgs steps    =   1

     enthalpy           old  =     -66.8730062009 Ry
     enthalpy           new  =     -66.8739676180 Ry

     CASE: enthalpy          _new < enthalpy          _old

     new trust radius        =       0.0011839042 bohr
     new conv_thr            =       0.0000000010 Ry

     new unit-cell volume =    111.85442 a.u.^3 (    16.57511 Ang^3 )
     density =     19.73263 g/cm^3

CELL_PARAMETERS (angstrom)
   0.000000000   2.023681603   2.023681603
   2.023681603   0.000000000   2.023681603
   2.023681603   2.023681603   0.000000000

ATOMIC_POSITIONS (angstrom)
Au               0.0000000000        0.0000000000        0.0000000000    0   0   0


     Message from routine punch:
     Nothing written, as per user request (disk_io='none')
     NEW-OLD atomic charge density approx. for the potential
     New effective cutoffs (rho, wfc):  310.44   39.07

     total cpu time spent up to now is       27.9 secs

     Self-consistent Calculation

     iteration #  1     ecut=    40.00 Ry     beta= 0.70
     Davidson diagonalization with overlap
     ethr =  1.00E-06,  avg # of iterations =  2.0

     Threshold (ethr) on eigenvalues was too large:
     Diagonalizing with lowered threshold

     Davidson diagonalization with overlap
     ethr =  1.83E-10,  avg # of iterations =  1.3

     total cpu time spent up to now is       32.8 secs

     total energy              =     -66.87396908 Ry
     estimated scf accuracy    <       0.00000002 Ry

     iteration #  2     ecut=    40.00 Ry     beta= 0.70
     Davidson diagonalization with overlap
     ethr =  1.57E-10,  avg # of iterations =  2.0

     total cpu time spent up to now is       35.4 secs

     total energy              =     -66.87396909 Ry
     estimated scf accuracy    <          6.2E-09 Ry

     iteration #  3     ecut=    40.00 Ry     beta= 0.70
     Davidson diagonalization with overlap
     ethr =  5.62E-11,  avg # of iterations =  1.6

     total cpu time spent up to now is       37.7 secs

     End of self-consistent calculation

     Number of k-points >= 100: set verbosity='high' to print the bands.

     the Fermi energy is    16.2400 ev

!    total energy              =     -66.87396909 Ry
     estimated scf accuracy    <          3.3E-11 Ry
     smearing contrib. (-TS)   =       0.00006151 Ry
     internal energy E=F+TS    =     -66.87403060 Ry

     The total energy is F=E-TS. E is the sum of the following terms:
     one-electron contribution =       8.98493850 Ry
     hartree contribution      =       7.13742088 Ry
     xc contribution           =     -10.46256178 Ry
     ewald contribution        =     -72.53382820 Ry

     convergence has been achieved in   3 iterations


     Computing stress (Cartesian axis) and pressure

          total   stress  (Ry/bohr**3)                   (kbar)     P=        0.45
   0.00000303   0.00000000   0.00000000            0.45        0.00        0.00
   0.00000000   0.00000303   0.00000000            0.00        0.45        0.00
   0.00000000   0.00000000   0.00000303            0.00        0.00        0.45

     Energy error            =      1.5E-06 Ry
     Gradient error          =      0.0E+00 Ry/Bohr
     Cell gradient error     =      4.5E-01 kbar

     bfgs converged in   3 scf cycles and   2 bfgs steps
     (criteria: energy <  1.0E-04 Ry, force <  1.0E-03 Ry/Bohr, cell <  5.0E-01 kbar)

     End of BFGS Geometry Optimization

     Final enthalpy           =     -66.8739690893 Ry

     File /home/bond/Work/Lab4/Problem3/Au_nk_14/pwscf.bfgs deleted, as requested
Begin final coordinates
     new unit-cell volume =    111.85442 a.u.^3 (    16.57511 Ang^3 )
     density =     19.73263 g/cm^3

CELL_PARAMETERS (angstrom)
   0.000000000   2.023681603   2.023681603
   2.023681603   0.000000000   2.023681603
   2.023681603   2.023681603   0.000000000

ATOMIC_POSITIONS (angstrom)
Au               0.0000000000        0.0000000000        0.0000000000    0   0   0
End final coordinates


     Message from routine punch:
     Nothing written, as per user request (disk_io='none')

     Final scf calculation at the relaxed structure.
     The G-vectors are recalculated for the final unit cell
     Results may differ from those at the preceding step.

     Parallelization info
     --------------------
     sticks:   dense  smooth     PW     G-vecs:    dense   smooth      PW
     Min         324     156     60                 5423     1917     434
     Max         325     157     61                 5426     1922     435
     Sum         649     313    121                10849     3839     869

     Using Slab Decomposition



     bravais-lattice index     =            0
     lattice parameter (alat)  =       5.3450  a.u.
     unit-cell volume          =     111.8544 (a.u.)^3
     number of atoms/cell      =            1
     number of atomic types    =            1
     number of electrons       =        11.00
     number of Kohn-Sham states=           10
     kinetic-energy cutoff     =      40.0000  Ry
     charge density cutoff     =     320.0000  Ry
     scf convergence threshold =      1.0E-09
     mixing beta               =       0.7000
     number of iterations used =            8  plain     mixing
     press convergence thresh. =      5.0E-01
     Exchange-correlation=  SLA  PZ   NOGX NOGC
                           (   1   1   0   0   0   0   0)

     celldm(1)=   5.344953  celldm(2)=   0.000000  celldm(3)=   0.000000
     celldm(4)=   0.000000  celldm(5)=   0.000000  celldm(6)=   0.000000

     crystal axes: (cart. coord. in units of alat)
               a(1) = (   0.000000   0.715479   0.715479 )  
               a(2) = (   0.715479   0.000000   0.715479 )  
               a(3) = (   0.715479   0.715479   0.000000 )  

     reciprocal axes: (cart. coord. in units 2 pi/alat)
               b(1) = ( -0.698832  0.698832  0.698832 )  
               b(2) = (  0.698832 -0.698832  0.698832 )  
               b(3) = (  0.698832  0.698832 -0.698832 )  


     PseudoPot. # 1 for Au read from file:
     /home/bond/Software/QE/qe-7.4.1/pseudo/Au.pz-d-rrkjus.UPF
     MD5 check sum: 424ffd4ac9c90487cbadcd287136c95b
     Pseudo is Ultrasoft, Zval = 11.0
     Generated by new atomic code, or converted to UPF format
     Using radial grid of 1279 points,  3 beta functions with: 
                l(1) =   2
                l(2) =   2
                l(3) =   1
     Q(r) pseudized with 0 coefficients 


     atomic species   valence    mass     pseudopotential
     Au               11.00   196.96657     Au( 1.00)

     48 Sym. Ops., with inversion, found



   Cartesian axes

     site n.     atom                  positions (alat units)
         1        Au     tau(   1) = (   0.0000000   0.0000000   0.0000000  )

     number of k points=   280  Methfessel-Paxton smearing, width (Ry)=  0.0200

     Number of k-points >= 100: set verbosity='high' to print them.

     Dense  grid:    10849 G-vectors     FFT dimensions: (  32,  32,  32)

     Smooth grid:     3839 G-vectors     FFT dimensions: (  24,  24,  24)

     Estimated max dynamical RAM per process >      24.53 MB

     Estimated total dynamical RAM >      49.06 MB

     Initial potential from superposition of free atoms

     starting charge      10.9999, renormalised to      11.0000
     Starting wfcs are    9 randomized atomic wfcs +    1 random wfcs

     total cpu time spent up to now is       39.4 secs

     Self-consistent Calculation

     iteration #  1     ecut=    40.00 Ry     beta= 0.70
     Davidson diagonalization with overlap
     c_bands:  1 eigenvalues not converged
     c_bands:  1 eigenvalues not converged
     c_bands:  1 eigenvalues not converged
     ethr =  1.00E-06,  avg # of iterations = 11.9

     total cpu time spent up to now is       48.1 secs

     total energy              =     -66.84523031 Ry
     estimated scf accuracy    <       0.07895987 Ry

     iteration #  2     ecut=    40.00 Ry     beta= 0.70
     Davidson diagonalization with overlap
     ethr =  7.18E-04,  avg # of iterations =  2.0

     total cpu time spent up to now is       51.2 secs

     total energy              =     -66.86879918 Ry
     estimated scf accuracy    <       0.02718138 Ry

     iteration #  3     ecut=    40.00 Ry     beta= 0.70
     Davidson diagonalization with overlap
     ethr =  2.47E-04,  avg # of iterations =  1.6

     total cpu time spent up to now is       53.5 secs

     total energy              =     -66.87397827 Ry
     estimated scf accuracy    <       0.00002899 Ry

     iteration #  4     ecut=    40.00 Ry     beta= 0.70
     Davidson diagonalization with overlap
     ethr =  2.64E-07,  avg # of iterations =  2.3

     total cpu time spent up to now is       56.7 secs

     total energy              =     -66.87399894 Ry
     estimated scf accuracy    <       0.00000386 Ry

     iteration #  5     ecut=    40.00 Ry     beta= 0.70
     Davidson diagonalization with overlap
     ethr =  3.51E-08,  avg # of iterations =  1.0

     total cpu time spent up to now is       59.1 secs

     total energy              =     -66.87399912 Ry
     estimated scf accuracy    <       0.00000015 Ry

     iteration #  6     ecut=    40.00 Ry     beta= 0.70
     Davidson diagonalization with overlap
     ethr =  1.33E-09,  avg # of iterations =  2.0

     total cpu time spent up to now is       62.1 secs

     total energy              =     -66.87399915 Ry
     estimated scf accuracy    <          4.9E-09 Ry

     iteration #  7     ecut=    40.00 Ry     beta= 0.70
     Davidson diagonalization with overlap
     ethr =  4.47E-11,  avg # of iterations =  2.0

     total cpu time spent up to now is       64.5 secs

     End of self-consistent calculation

     Number of k-points >= 100: set verbosity='high' to print the bands.

     the Fermi energy is    16.2400 ev

!    total energy              =     -66.87399915 Ry
     estimated scf accuracy    <          1.8E-10 Ry
     smearing contrib. (-TS)   =       0.00006153 Ry
     internal energy E=F+TS    =     -66.87406069 Ry

     The total energy is F=E-TS. E is the sum of the following terms:
     one-electron contribution =       8.98499775 Ry
     hartree contribution      =       7.13728322 Ry
     xc contribution           =     -10.46251346 Ry
     ewald contribution        =     -72.53382820 Ry

     convergence has been achieved in   7 iterations


     Computing stress (Cartesian axis) and pressure

          total   stress  (Ry/bohr**3)                   (kbar)     P=        0.17
   0.00000113  -0.00000000  -0.00000000            0.17       -0.00       -0.00
  -0.00000000   0.00000113  -0.00000000           -0.00        0.17       -0.00
  -0.00000000  -0.00000000   0.00000113           -0.00       -0.00        0.17

     Message from routine punch:
     Nothing written, as per user request (disk_io='none')

     init_run     :      2.78s CPU      2.95s WALL (       2 calls)
     electrons    :     54.14s CPU     59.57s WALL (       4 calls)
     update_pot   :      0.01s CPU      0.01s WALL (       2 calls)
     stress       :      2.32s CPU      2.36s WALL (       4 calls)

     Called by init_run:
     wfcinit      :      1.74s CPU      1.90s WALL (       2 calls)
     potinit      :      0.20s CPU      0.20s WALL (       2 calls)
     hinit0       :      0.74s CPU      0.75s WALL (       2 calls)

     Called by electrons:
     c_bands      :     46.63s CPU     51.28s WALL (      21 calls)
     sum_band     :      7.22s CPU      7.98s WALL (      21 calls)
     v_of_rho     :      0.04s CPU      0.04s WALL (      22 calls)
     newd         :      0.30s CPU      0.31s WALL (      22 calls)
     mix_rho      :      0.01s CPU      0.01s WALL (      21 calls)

     Called by c_bands:
     init_us_2    :      0.93s CPU      1.02s WALL (   13440 calls)
     cegterg      :     45.06s CPU     49.56s WALL (    5880 calls)

     Called by *egterg:
     cdiaghg      :      3.05s CPU      3.37s WALL (   19113 calls)
     h_psi        :     39.50s CPU     43.44s WALL (   21073 calls)
     s_psi        :      0.29s CPU      0.32s WALL (   21073 calls)
     g_psi        :      0.14s CPU      0.15s WALL (   14633 calls)

     Called by h_psi:
     h_psi:calbec :      1.22s CPU      1.35s WALL (   21073 calls)
     vloc_psi     :     37.58s CPU     41.31s WALL (   21073 calls)
     add_vuspsi   :      0.38s CPU      0.42s WALL (   21073 calls)

     General routines
     calbec       :      1.98s CPU      2.15s WALL (   41513 calls)
     fft          :      0.19s CPU      0.19s WALL (     137 calls)
     ffts         :      0.17s CPU      0.17s WALL (      43 calls)
     fftw         :     38.39s CPU     42.30s WALL (  378426 calls)
     interpolate  :      0.17s CPU      0.17s WALL (      22 calls)

     Parallel routines

     PWSCF        :     59.49s CPU   1m 5.19s WALL


   This run was terminated on:  18: 6:34  21Oct2025            

=------------------------------------------------------------------------------=
   JOB DONE.
=------------------------------------------------------------------------------=
