
     Program PWSCF v.7.4.1 starts on  9Oct2025 at 13: 1:52 

     This program is part of the open-source Quantum ESPRESSO suite
     for quantum simulation of materials; please cite
         "P. Giannozzi et al., J. Phys.:Condens. Matter 21 395502 (2009);
         "P. Giannozzi et al., J. Phys.:Condens. Matter 29 465901 (2017);
         "P. Giannozzi et al., J. Chem. Phys. 152 154105 (2020);
          URL http://www.quantum-espresso.org", 
     in publications or presentations arising from this work. More details at
     http://www.quantum-espresso.org/quote

     Parallel version (MPI), running on     1 processors

     MPI processes distributed on     1 nodes
     215 MiB available memory on the printing compute node when the environment starts

     Waiting for input...
     Reading input from standard input
Warning: card &CELL ignored
Warning: card / ignored

     Current dimensions of program PWSCF are:
     Max number of different atomic species (ntypx) = 10
     Max number of k-points (npk) =  40000
     Max angular momentum in pseudopotentials (lmaxx) =  4
     Message from routine setup:
     using ibrav=0 with symmetry is DISCOURAGED, use correct ibrav instead

     Subspace diagonalization in iterative solution of the eigenvalue problem:
     a serial algorithm will be used


     G-vector sticks info
     --------------------
     sticks:   dense  smooth     PW     G-vecs:    dense   smooth      PW
     Sum         241     241     85                 2421     2421     531

     Using Slab Decomposition



     bravais-lattice index     =            0
     lattice parameter (alat)  =       7.5872  a.u.
     unit-cell volume          =     308.8323 (a.u.)^3
     number of atoms/cell      =            2
     number of atomic types    =            1
     number of electrons       =        28.00
     number of Kohn-Sham states=           14
     kinetic-energy cutoff     =      15.0000  Ry
     charge density cutoff     =      60.0000  Ry
     scf convergence threshold =      1.0E-07
     mixing beta               =       0.5000
     number of iterations used =            8  plain     mixing
     Exchange-correlation=  SLA  PZ   NOGX NOGC
                           (   1   1   0   0   0   0   0)

     celldm(1)=   7.587160  celldm(2)=   0.000000  celldm(3)=   0.000000
     celldm(4)=   0.000000  celldm(5)=   0.000000  celldm(6)=   0.000000

     crystal axes: (cart. coord. in units of alat)
               a(1) = (   0.000000   0.707107   0.707107 )  
               a(2) = (   0.707107   0.000000   0.707107 )  
               a(3) = (   0.707107   0.707107   0.000000 )  

     reciprocal axes: (cart. coord. in units 2 pi/alat)
               b(1) = ( -0.707107  0.707107  0.707107 )  
               b(2) = (  0.707107 -0.707107  0.707107 )  
               b(3) = (  0.707107  0.707107 -0.707107 )  


     PseudoPot. # 1 for Ge read from file:
     /home/bond/Software/QE/qe-7.4.1/pseudo/ge_lda_v1.4.uspp.F.UPF
     MD5 check sum: bf9d52b59cc8a669818bb2b52e0c2ba0
     Pseudo is Ultrasoft + core correction, Zval = 14.0
     Generated by new atomic code, or converted to UPF format
     Using radial grid of  873 points,  6 beta functions with: 
                l(1) =   0
                l(2) =   0
                l(3) =   1
                l(4) =   1
                l(5) =   2
                l(6) =   2
     Q(r) pseudized with  8 coefficients,  rinner =    1.400   1.400   1.400
                                                       1.400   1.400

     atomic species   valence    mass     pseudopotential
     Ge               14.00    72.63000     Ge( 1.00)

     48 Sym. Ops., with inversion, found (24 have fractional translation)



   Cartesian axes

     site n.     atom                  positions (alat units)
         1        Ge     tau(   1) = (   0.0000000   0.0000000   0.0000000  )
         2        Ge     tau(   2) = (   0.3535534   0.3535534   0.3535534  )

     number of k points=     8
                       cart. coord. in units 2pi/alat
        k(    1) = (   0.0000000   0.0000000   0.0000000), wk =   0.0312500
        k(    2) = (   0.1767767   0.1767767  -0.1767767), wk =   0.2500000
        k(    3) = (  -0.3535534  -0.3535534   0.3535534), wk =   0.1250000
        k(    4) = (   0.3535534   0.0000000   0.0000000), wk =   0.1875000
        k(    5) = (  -0.1767767  -0.5303301   0.5303301), wk =   0.7500000
        k(    6) = (   0.0000000  -0.3535534   0.3535534), wk =   0.3750000
        k(    7) = (  -0.7071068   0.0000000   0.0000000), wk =   0.0937500
        k(    8) = (  -0.7071068   0.3535534   0.0000000), wk =   0.1875000

     Dense  grid:     2421 G-vectors     FFT dimensions: (  20,  20,  20)

     Estimated max dynamical RAM per process >      10.35 MB

     Check: negative core charge=   -0.006766

     Initial potential from superposition of free atoms

     starting charge      27.9986, renormalised to      28.0000

     negative rho (up, down):  1.944E-03 0.000E+00
     Starting wfcs are   18 randomized atomic wfcs

     total cpu time spent up to now is        0.5 secs

     Self-consistent Calculation

     iteration #  1     ecut=    15.00 Ry     beta= 0.50
     Davidson diagonalization with overlap
     ethr =  1.00E-02,  avg # of iterations =  2.0

     negative rho (up, down):  1.846E-03 0.000E+00

     total cpu time spent up to now is        0.5 secs

     total energy              =    -417.93467221 Ry
     estimated scf accuracy    <       2.12423337 Ry

     iteration #  2     ecut=    15.00 Ry     beta= 0.50
     Davidson diagonalization with overlap
     ethr =  7.59E-03,  avg # of iterations =  2.0

     negative rho (up, down):  3.824E-03 0.000E+00

     total cpu time spent up to now is        0.5 secs

     total energy              =    -418.17785844 Ry
     estimated scf accuracy    <       0.11131351 Ry

     iteration #  3     ecut=    15.00 Ry     beta= 0.50
     Davidson diagonalization with overlap
     ethr =  3.98E-04,  avg # of iterations =  2.1

     negative rho (up, down):  4.868E-03 0.000E+00

     total cpu time spent up to now is        0.6 secs

     total energy              =    -418.19226560 Ry
     estimated scf accuracy    <       0.00489480 Ry

     iteration #  4     ecut=    15.00 Ry     beta= 0.50
     Davidson diagonalization with overlap
     ethr =  1.75E-05,  avg # of iterations =  2.5

     negative rho (up, down):  4.192E-03 0.000E+00

     total cpu time spent up to now is        0.6 secs

     total energy              =    -418.19316625 Ry
     estimated scf accuracy    <       0.00013047 Ry

     iteration #  5     ecut=    15.00 Ry     beta= 0.50
     Davidson diagonalization with overlap
     ethr =  4.66E-07,  avg # of iterations =  2.9

     negative rho (up, down):  4.184E-03 0.000E+00

     total cpu time spent up to now is        0.7 secs

     total energy              =    -418.19319150 Ry
     estimated scf accuracy    <       0.00002277 Ry

     iteration #  6     ecut=    15.00 Ry     beta= 0.50
     Davidson diagonalization with overlap
     ethr =  8.13E-08,  avg # of iterations =  2.0

     negative rho (up, down):  4.192E-03 0.000E+00

     total cpu time spent up to now is        0.7 secs

     total energy              =    -418.19319468 Ry
     estimated scf accuracy    <       0.00000043 Ry

     iteration #  7     ecut=    15.00 Ry     beta= 0.50
     Davidson diagonalization with overlap
     ethr =  1.55E-09,  avg # of iterations =  4.8

     negative rho (up, down):  4.196E-03 0.000E+00

     total cpu time spent up to now is        0.8 secs

     End of self-consistent calculation

          k = 0.0000 0.0000 0.0000 (   307 PWs)   bands (ev):

   -23.9286 -23.9286 -22.7949 -22.7949 -22.7949 -22.4380 -22.4380 -22.4380
   -19.3899 -19.3899  -5.1338   6.3935   7.5951   7.5951

          k = 0.1768 0.1768-0.1768 (   305 PWs)   bands (ev):

   -23.3683 -23.3338 -23.3338 -22.5587 -22.5587 -21.8211 -21.8211 -21.6891
   -20.6565 -20.6565  -4.4266   2.6268   6.7956   6.7956

          k =-0.3536-0.3536 0.3536 (   302 PWs)   bands (ev):

   -24.4413 -24.4413 -22.8609 -22.8609 -21.4593 -20.6293 -20.6293 -20.5827
   -19.8729 -19.8729  -3.1720  -0.0440   6.3129   6.3129

          k = 0.3536 0.0000 0.0000 (   303 PWs)   bands (ev):

   -23.5633 -22.9918 -22.9504 -22.9504 -22.1120 -21.9619 -21.6872 -21.6591
   -20.3751 -20.3751  -4.1687   2.4778   5.7206   5.7206

          k =-0.1768-0.5303 0.5303 (   307 PWs)   bands (ev):

   -23.9395 -23.3756 -22.6957 -22.5066 -22.4194 -22.2955 -22.0395 -21.5038
   -21.2150 -20.5042  -2.7663   0.0229   4.0233   5.3734

          k = 0.0000-0.3536 0.3536 (   307 PWs)   bands (ev):

   -23.7388 -23.1164 -23.0171 -22.9323 -22.6296 -22.0430 -21.5657 -21.4550
   -21.1165 -21.0823  -3.3457   0.8302   3.9078   6.2135

          k =-0.7071 0.0000 0.0000 (   302 PWs)   bands (ev):

   -22.8095 -22.8095 -22.4848 -22.4848 -22.2295 -22.2295 -21.6353 -21.6353
   -20.4714 -20.4714  -1.4405  -1.4405   4.7409   4.7409

          k =-0.7071 0.3536 0.0000 (   308 PWs)   bands (ev):

   -23.3937 -23.3937 -22.8371 -22.8371 -22.5246 -22.5246 -21.9897 -21.9897
   -20.7756 -20.7756  -1.3613  -1.3613   3.9058   3.9058

     highest occupied level (ev):     7.5951

!    total energy              =    -418.19319503 Ry
     estimated scf accuracy    <       0.00000003 Ry

     The total energy is the sum of the following terms:
     one-electron contribution =    -258.50904508 Ry
     hartree contribution      =     148.46318600 Ry
     xc contribution           =    -111.34850893 Ry
     ewald contribution        =    -196.79882703 Ry

     convergence has been achieved in   7 iterations

     negative rho (up, down):  4.196E-03 0.000E+00

     Forces acting on atoms (cartesian axes, Ry/au):

     atom    1 type  1   force =     0.00000000    0.00000000    0.00000000
     atom    2 type  1   force =     0.00000000    0.00000000    0.00000000

     Total force =     0.000000     Total SCF correction =     0.000000


     Computing stress (Cartesian axis) and pressure


     negative rho (up, down):  4.196E-03 0.000E+00
          total   stress  (Ry/bohr**3)                   (kbar)     P=   -14092.35
  -0.09579784   0.00000000  -0.00000000       -14092.35        0.00       -0.00
   0.00000000  -0.09579784  -0.00000000            0.00   -14092.35       -0.00
  -0.00000000  -0.00000000  -0.09579784           -0.00       -0.00   -14092.35

     Message from routine punch:
     Nothing written, as per user request (disk_io='none')

     init_run     :      0.37s CPU      0.38s WALL (       1 calls)
     electrons    :      0.32s CPU      0.33s WALL (       1 calls)
     forces       :      0.01s CPU      0.01s WALL (       1 calls)
     stress       :      0.08s CPU      0.08s WALL (       1 calls)

     Called by init_run:
     wfcinit      :      0.14s CPU      0.14s WALL (       1 calls)
     potinit      :      0.01s CPU      0.01s WALL (       1 calls)
     hinit0       :      0.22s CPU      0.22s WALL (       1 calls)

     Called by electrons:
     c_bands      :      0.20s CPU      0.21s WALL (       7 calls)
     sum_band     :      0.07s CPU      0.07s WALL (       7 calls)
     v_of_rho     :      0.00s CPU      0.00s WALL (       8 calls)
     newd         :      0.05s CPU      0.05s WALL (       8 calls)
     mix_rho      :      0.00s CPU      0.00s WALL (       7 calls)

     Called by c_bands:
     init_us_2    :      0.01s CPU      0.01s WALL (     136 calls)
     cegterg      :      0.18s CPU      0.19s WALL (      56 calls)

     Called by *egterg:
     cdiaghg      :      0.03s CPU      0.03s WALL (     202 calls)
     h_psi        :      0.25s CPU      0.26s WALL (     210 calls)
     s_psi        :      0.01s CPU      0.01s WALL (     210 calls)
     g_psi        :      0.00s CPU      0.00s WALL (     146 calls)

     Called by h_psi:
     h_psi:calbec :      0.01s CPU      0.01s WALL (     210 calls)
     vloc_psi     :      0.24s CPU      0.24s WALL (     210 calls)
     add_vuspsi   :      0.01s CPU      0.01s WALL (     210 calls)

     General routines
     calbec       :      0.01s CPU      0.01s WALL (     402 calls)
     fft          :      0.13s CPU      0.13s WALL (      40 calls)
     ffts         :      0.00s CPU      0.00s WALL (       7 calls)
     fftw         :      0.22s CPU      0.23s WALL (    5582 calls)

     Parallel routines

     PWSCF        :      0.86s CPU      0.88s WALL


   This run was terminated on:  13: 1:53   9Oct2025            

=------------------------------------------------------------------------------=
   JOB DONE.
=------------------------------------------------------------------------------=
