LAMMPS (22 Jul 2025 - Update 1)
Reading data file ...
  orthogonal box = (0 0 0) to (8.6584976 7.4984789 20.852356)
  1 by 1 by 1 MPI processor grid
  reading atoms ...
  81 atoms
  read_data CPU = 0.001 seconds
Reading eam/alloy potential file /home/bond/Software/LAMMPS/lammps-22Jul2025/potentials/Al_zhou.eam.alloy with DATE: 2007-10-12
WARNING: No fixes with time integration, atoms won't move
For more information see https://docs.lammps.org/err0028 (../verlet.cpp:60)
Neighbor list info ...
  update: every = 1 steps, delay = 0 steps, check = yes
  max neighbors/atom: 2000, page size: 100000
  master list distance cutoff = 12.1025
  ghost atom cutoff = 12.1025
  binsize = 6.05125, bins = 2 2 4
  1 neighbor lists, perpetual/occasional/extra = 1 0 0
  (1) pair eam/alloy, perpetual
      attributes: half, newton on
      pair build: half/bin/atomonly/newton
      stencil: half/bin/3d
      bin: standard
Setting up Verlet run ...
  Unit style    : metal
  Current step  : 0
  Time step     : 0.001
Per MPI rank memory allocation (min/avg/max) = 3.353 | 3.353 | 3.353 Mbytes
   Step         PotEng           Lx             Ly             Lz           Press           Pxx            Pyy            Pzz      
         0  -278.38232      8.6584976      7.4984789      20.852356      5378.8429     -15553.117      27709.754      3979.8918    
Loop time of 1.56e-06 on 1 procs for 0 steps with 81 atoms

128.2% CPU use with 1 MPI tasks x no OpenMP threads

MPI task timing breakdown:
Section |  min time  |  avg time  |  max time  |%varavg| %total
---------------------------------------------------------------
Pair    | 0          | 0          | 0          |   0.0 |  0.00
Neigh   | 0          | 0          | 0          |   0.0 |  0.00
Comm    | 0          | 0          | 0          |   0.0 |  0.00
Output  | 0          | 0          | 0          |   0.0 |  0.00
Modify  | 0          | 0          | 0          |   0.0 |  0.00
Other   |            | 1.56e-06   |            |       |100.00

Nlocal:             81 ave          81 max          81 min
Histogram: 1 0 0 0 0 0 0 0 0 0
Nghost:           1236 ave        1236 max        1236 min
Histogram: 1 0 0 0 0 0 0 0 0 0
Neighs:          13878 ave       13878 max       13878 min
Histogram: 1 0 0 0 0 0 0 0 0 0

Total # of neighbors = 13878
Ave neighs/atom = 171.33333
Neighbor list builds = 0
Dangerous builds = 0
Setting up cg style minimization ...
  Unit style    : metal
  Current step  : 0
Per MPI rank memory allocation (min/avg/max) = 4.478 | 4.478 | 4.478 Mbytes
   Step         PotEng           Lx             Ly             Lz           Press           Pxx            Pyy            Pzz      
         0  -278.38232      8.6584976      7.4984789      20.852356      5378.8429     -15553.117      27709.754      3979.8918    
        33  -280.64012      8.6584976      7.4984789      20.852356      5777.9681     -6809.4079      24141.351      1.9610983    
Loop time of 0.0770759 on 1 procs for 33 steps with 81 atoms

98.6% CPU use with 1 MPI tasks x no OpenMP threads

Minimization stats:
  Stopping criterion = energy tolerance
  Energy initial, next-to-last, final = 
     -278.382324059963  -280.640119455525  -280.640119476716
  Force two-norm initial, final = 4.7324453 0.00022985139
  Force max component initial, final = 0.66710948 3.9099578e-05
  Final line search alpha, max atom move = 1 3.9099578e-05
  Iterations, force evaluations = 33 65

MPI task timing breakdown:
Section |  min time  |  avg time  |  max time  |%varavg| %total
---------------------------------------------------------------
Pair    | 0.075748   | 0.075748   | 0.075748   |   0.0 | 98.28
Neigh   | 0          | 0          | 0          |   0.0 |  0.00
Comm    | 0.00073355 | 0.00073355 | 0.00073355 |   0.0 |  0.95
Output  | 0          | 0          | 0          |   0.0 |  0.00
Modify  | 0          | 0          | 0          |   0.0 |  0.00
Other   |            | 0.0005944  |            |       |  0.77

Nlocal:             81 ave          81 max          81 min
Histogram: 1 0 0 0 0 0 0 0 0 0
Nghost:           1236 ave        1236 max        1236 min
Histogram: 1 0 0 0 0 0 0 0 0 0
Neighs:          13878 ave       13878 max       13878 min
Histogram: 1 0 0 0 0 0 0 0 0 0

Total # of neighbors = 13878
Ave neighs/atom = 171.33333
Neighbor list builds = 0
Dangerous builds = 0
Total energy (eV) = -280.640119476716
Number of atoms = 81
Lattice constant (Angstoms) = 8.65849758507688
Total wall time: 0:00:00
