LAMMPS (22 Jul 2025 - Update 1)
# ---------- 1. Initialize simulation ---------------------
units metal
atom_style atomic
dimension  3
boundary   p p p
read_data /home/bond/Work/Lab1/Vacancy/LJ/relax/8/lammps.data
Reading data file ...
  orthogonal box = (0 0 0) to (32.980184 32.980184 32.980184)
  1 by 1 by 1 MPI processor grid
  reading atoms ...
  2047 atoms
  read_data CPU = 0.006 seconds

# ---------- 2. Specify interatomic potential ---------------------

pair_style lj/cut 4.5
pair_coeff 1 1 0.392 2.620 4.5

# ---------- 3. Run single point calculation  ---------------------
thermo_style custom step pe lx ly lz press pxx pyy pzz
run 0
WARNING: No fixes with time integration, atoms won't move
For more information see https://docs.lammps.org/err0028 (../verlet.cpp:60)
Generated 0 of 0 mixed pair_coeff terms from geometric mixing rule
Neighbor list info ...
  update: every = 1 steps, delay = 0 steps, check = yes
  max neighbors/atom: 2000, page size: 100000
  master list distance cutoff = 6.5
  ghost atom cutoff = 6.5
  binsize = 3.25, bins = 11 11 11
  1 neighbor lists, perpetual/occasional/extra = 1 0 0
  (1) pair lj/cut, perpetual
      attributes: half, newton on
      pair build: half/bin/atomonly/newton
      stencil: half/bin/3d
      bin: standard
Per MPI rank memory allocation (min/avg/max) = 3.249 | 3.249 | 3.249 Mbytes
   Step         PotEng           Lx             Ly             Lz           Press           Pxx            Pyy            Pzz      
         0  -5390.4011      32.980184      32.980184      32.980184     -0.0022249155  -0.0026905591  -0.0012936284  -0.002690559  
Loop time of 2.272e-06 on 1 procs for 0 steps with 2047 atoms

88.0% CPU use with 1 MPI tasks x no OpenMP threads

MPI task timing breakdown:
Section |  min time  |  avg time  |  max time  |%varavg| %total
---------------------------------------------------------------
Pair    | 0          | 0          | 0          |   0.0 |  0.00
Neigh   | 0          | 0          | 0          |   0.0 |  0.00
Comm    | 0          | 0          | 0          |   0.0 |  0.00
Output  | 0          | 0          | 0          |   0.0 |  0.00
Modify  | 0          | 0          | 0          |   0.0 |  0.00
Other   |            | 2.272e-06  |            |       |100.00

Nlocal:           2047 ave        2047 max        2047 min
Histogram: 1 0 0 0 0 0 0 0 0 0
Nghost:           4028 ave        4028 max        4028 min
Histogram: 1 0 0 0 0 0 0 0 0 0
Neighs:          55242 ave       55242 max       55242 min
Histogram: 1 0 0 0 0 0 0 0 0 0

Total # of neighbors = 55242
Ave neighs/atom = 26.98681
Neighbor list builds = 0
Dangerous builds = 0
# -- include optimization of the unit cell parameter
fix 1 all box/relax iso 0.0 vmax 0.001

# -- enable optimization of atomic positions (and the cell)
min_style cg
minimize 1e-12 1e-12 1000 10000
Generated 0 of 0 mixed pair_coeff terms from geometric mixing rule
WARNING: Energy due to 1 extra global DOFs will be included in minimizer energies
 (../min.cpp:222)
Per MPI rank memory allocation (min/avg/max) = 4.374 | 4.374 | 4.374 Mbytes
   Step         PotEng           Lx             Ly             Lz           Press           Pxx            Pyy            Pzz      
         0  -5390.4011      32.980184      32.980184      32.980184     -0.0022249155  -0.0026905591  -0.0012936284  -0.002690559  
        22  -5390.4092      32.980104      32.980104      32.980104      0.36046477     0.36056503     0.36026425     0.36056503   
Loop time of 0.0406005 on 1 procs for 22 steps with 2047 atoms

97.4% CPU use with 1 MPI tasks x no OpenMP threads

Minimization stats:
  Stopping criterion = energy tolerance
  Energy initial, next-to-last, final = 
     -5390.40111655721  -5390.40923034339  -5390.40923034564
  Force two-norm initial, final = 0.45228521 0.031832101
  Force max component initial, final = 0.13063076 0.02421201
  Final line search alpha, max atom move = 0.057718827 0.0013974888
  Iterations, force evaluations = 22 44

MPI task timing breakdown:
Section |  min time  |  avg time  |  max time  |%varavg| %total
---------------------------------------------------------------
Pair    | 0.033145   | 0.033145   | 0.033145   |   0.0 | 81.64
Neigh   | 0          | 0          | 0          |   0.0 |  0.00
Comm    | 0.00095605 | 0.00095605 | 0.00095605 |   0.0 |  2.35
Output  | 0          | 0          | 0          |   0.0 |  0.00
Modify  | 0          | 0          | 0          |   0.0 |  0.00
Other   |            | 0.0065     |            |       | 16.01

Nlocal:           2047 ave        2047 max        2047 min
Histogram: 1 0 0 0 0 0 0 0 0 0
Nghost:           4028 ave        4028 max        4028 min
Histogram: 1 0 0 0 0 0 0 0 0 0
Neighs:          55242 ave       55242 max       55242 min
Histogram: 1 0 0 0 0 0 0 0 0 0

Total # of neighbors = 55242
Ave neighs/atom = 26.98681
Neighbor list builds = 0
Dangerous builds = 0
# ---- 4. Define and print useful variables -------------
variable natoms equal "count(all)"
variable totenergy equal "pe"
variable length equal "lx"

print "Total energy (eV) = ${totenergy}"
Total energy (eV) = -5390.40923034564
print "Number of atoms = ${natoms}"
Number of atoms = 2047
print "Lattice constant (Angstoms) = ${length}"
Lattice constant (Angstoms) = 32.9801043316447
Total wall time: 0:00:00
