
     Program PWSCF v.7.4.1 starts on 21Oct2025 at  0:42:45 

     This program is part of the open-source Quantum ESPRESSO suite
     for quantum simulation of materials; please cite
         "P. Giannozzi et al., J. Phys.:Condens. Matter 21 395502 (2009);
         "P. Giannozzi et al., J. Phys.:Condens. Matter 29 465901 (2017);
         "P. Giannozzi et al., J. Chem. Phys. 152 154105 (2020);
          URL http://www.quantum-espresso.org", 
     in publications or presentations arising from this work. More details at
     http://www.quantum-espresso.org/quote

     Parallel version (MPI), running on     2 processors

     MPI processes distributed on     1 nodes
     148 MiB available memory on the printing compute node when the environment starts

     Waiting for input...
     Reading input from standard input
Warning: card &CELL ignored
Warning: card / ignored

     Current dimensions of program PWSCF are:
     Max number of different atomic species (ntypx) = 10
     Max number of k-points (npk) =  40000
     Max angular momentum in pseudopotentials (lmaxx) =  4
     file Fe.pbe-nd-rrkjus.UPF: wavefunction(s)  4S renormalized
     Message from routine setup:
     using ibrav=0 with symmetry is DISCOURAGED, use correct ibrav instead

     R & G space division:  proc/nbgrp/npool/nimage =       2
     Subspace diagonalization in iterative solution of the eigenvalue problem:
     a serial algorithm will be used


     Parallelization info
     --------------------
     sticks:   dense  smooth     PW     G-vecs:    dense   smooth      PW
     Min         141      58     31                 1550      395     160
     Max         142      59     32                 1553      396     161
     Sum         283     117     63                 3103      791     321

     Using Slab Decomposition



     bravais-lattice index     =            0
     lattice parameter (alat)  =       3.6004  a.u.
     unit-cell volume          =      35.9281 (a.u.)^3
     number of atoms/cell      =            1
     number of atomic types    =            1
     number of electrons       =         8.00
     number of Kohn-Sham states=            8
     kinetic-energy cutoff     =      30.0000  Ry
     charge density cutoff     =     300.0000  Ry
     scf convergence threshold =      1.0E-07
     mixing beta               =       0.5000
     number of iterations used =            8  plain     mixing
     Exchange-correlation=  SLA  PW   PBE  PBE
                           (   1   4   3   4   0   0   0)

     celldm(1)=   3.600412  celldm(2)=   0.000000  celldm(3)=   0.000000
     celldm(4)=   0.000000  celldm(5)=   0.000000  celldm(6)=   0.000000

     crystal axes: (cart. coord. in units of alat)
               a(1) = (  -0.577350   0.577350   0.577350 )  
               a(2) = (   0.577350  -0.577350   0.577350 )  
               a(3) = (   0.577350   0.577350  -0.577350 )  

     reciprocal axes: (cart. coord. in units 2 pi/alat)
               b(1) = (  0.000000  0.866025  0.866025 )  
               b(2) = (  0.866025  0.000000  0.866025 )  
               b(3) = (  0.866025  0.866025  0.000000 )  


     PseudoPot. # 1 for Fe read from file:
     /home/bond/Software/QE/qe-7.4.1/pseudo/Fe.pbe-nd-rrkjus.UPF
     MD5 check sum: 398036227a04b607635f6f5e8dfd8242
     Pseudo is Ultrasoft + core correction, Zval =  8.0
     Generated by new atomic code, or converted to UPF format
     Using radial grid of  957 points,  6 beta functions with: 
                l(1) =   0
                l(2) =   0
                l(3) =   1
                l(4) =   1
                l(5) =   2
                l(6) =   2
     Q(r) pseudized with 0 coefficients 


     atomic species   valence    mass     pseudopotential
     Fe                8.00    55.84500     Fe( 1.00)

     Starting magnetic structure 
     atomic species   magnetization
     Fe              0.700

     48 Sym. Ops., with inversion, found



   Cartesian axes

     site n.     atom                  positions (alat units)
         1        Fe     tau(   1) = (   0.0000000   0.0000000   0.0000000  )

     number of k points=   104  Methfessel-Paxton smearing, width (Ry)=  0.0200

     Number of k-points >= 100: set verbosity='high' to print them.

     Dense  grid:     3103 G-vectors     FFT dimensions: (  20,  20,  20)

     Smooth grid:      791 G-vectors     FFT dimensions: (  15,  15,  15)

     Estimated max dynamical RAM per process >       9.02 MB

     Estimated total dynamical RAM >      18.03 MB
     Generating pointlists ...
     new r_m :   0.4125 (alat units)  1.4852 (a.u.) for type    1

     Initial potential from superposition of free atoms

     starting charge       7.9994, renormalised to       8.0000
     Starting wfcs are    6 randomized atomic wfcs +    2 random wfcs

     total cpu time spent up to now is        0.9 secs

     Self-consistent Calculation

     iteration #  1     ecut=    30.00 Ry     beta= 0.50
     Davidson diagonalization with overlap
     ethr =  1.00E-02,  avg # of iterations =  4.9

     total cpu time spent up to now is        1.7 secs

     total energy              =     -55.13460509 Ry
     estimated scf accuracy    <       0.19463410 Ry

     total magnetization       =     2.19 Bohr mag/cell
     absolute magnetization    =     2.19 Bohr mag/cell

     iteration #  2     ecut=    30.00 Ry     beta= 0.50
     Davidson diagonalization with overlap
     ethr =  2.43E-03,  avg # of iterations =  1.1

     total cpu time spent up to now is        2.0 secs

     total energy              =     -55.22962724 Ry
     estimated scf accuracy    <       0.06436954 Ry

     total magnetization       =     1.77 Bohr mag/cell
     absolute magnetization    =     1.77 Bohr mag/cell

     iteration #  3     ecut=    30.00 Ry     beta= 0.50
     Davidson diagonalization with overlap
     ethr =  8.05E-04,  avg # of iterations =  1.2

     total cpu time spent up to now is        2.4 secs

     total energy              =     -55.25375612 Ry
     estimated scf accuracy    <       0.00841937 Ry

     total magnetization       =     1.23 Bohr mag/cell
     absolute magnetization    =     1.24 Bohr mag/cell

     iteration #  4     ecut=    30.00 Ry     beta= 0.50
     Davidson diagonalization with overlap
     ethr =  1.05E-04,  avg # of iterations =  4.5

     total cpu time spent up to now is        3.0 secs

     total energy              =     -55.26055305 Ry
     estimated scf accuracy    <       0.00151451 Ry

     total magnetization       =     0.82 Bohr mag/cell
     absolute magnetization    =     0.85 Bohr mag/cell

     iteration #  5     ecut=    30.00 Ry     beta= 0.50
     Davidson diagonalization with overlap
     ethr =  1.89E-05,  avg # of iterations =  3.5

     total cpu time spent up to now is        3.5 secs

     total energy              =     -55.26065722 Ry
     estimated scf accuracy    <       0.00120546 Ry

     total magnetization       =     0.74 Bohr mag/cell
     absolute magnetization    =     0.77 Bohr mag/cell

     iteration #  6     ecut=    30.00 Ry     beta= 0.50
     Davidson diagonalization with overlap
     ethr =  1.51E-05,  avg # of iterations =  2.2

     total cpu time spent up to now is        3.9 secs

     total energy              =     -55.25519414 Ry
     estimated scf accuracy    <       0.00029572 Ry

     total magnetization       =     0.45 Bohr mag/cell
     absolute magnetization    =     0.46 Bohr mag/cell

     iteration #  7     ecut=    30.00 Ry     beta= 0.50
     Davidson diagonalization with overlap
     ethr =  3.70E-06,  avg # of iterations =  4.8

     total cpu time spent up to now is        4.6 secs

     total energy              =     -55.25523878 Ry
     estimated scf accuracy    <       0.00019820 Ry

     total magnetization       =    -0.07 Bohr mag/cell
     absolute magnetization    =     0.08 Bohr mag/cell

     iteration #  8     ecut=    30.00 Ry     beta= 0.50
     Davidson diagonalization with overlap
     ethr =  2.48E-06,  avg # of iterations =  4.1

     total cpu time spent up to now is        5.3 secs

     total energy              =     -55.25669522 Ry
     estimated scf accuracy    <       0.00037006 Ry

     total magnetization       =     0.43 Bohr mag/cell
     absolute magnetization    =     0.44 Bohr mag/cell

     iteration #  9     ecut=    30.00 Ry     beta= 0.50
     Davidson diagonalization with overlap
     ethr =  2.48E-06,  avg # of iterations =  3.6

     total cpu time spent up to now is        5.8 secs

     total energy              =     -55.26533749 Ry
     estimated scf accuracy    <       0.00002167 Ry

     total magnetization       =    -0.05 Bohr mag/cell
     absolute magnetization    =     0.06 Bohr mag/cell

     iteration # 10     ecut=    30.00 Ry     beta= 0.50
     Davidson diagonalization with overlap
     ethr =  2.71E-07,  avg # of iterations =  1.4

     total cpu time spent up to now is        6.2 secs

     total energy              =     -55.26531823 Ry
     estimated scf accuracy    <       0.00000407 Ry

     total magnetization       =    -0.03 Bohr mag/cell
     absolute magnetization    =     0.03 Bohr mag/cell

     iteration # 11     ecut=    30.00 Ry     beta= 0.50
     Davidson diagonalization with overlap
     ethr =  5.09E-08,  avg # of iterations =  2.8

     total cpu time spent up to now is        6.8 secs

     total energy              =     -55.26537792 Ry
     estimated scf accuracy    <       0.00000021 Ry

     total magnetization       =     0.01 Bohr mag/cell
     absolute magnetization    =     0.01 Bohr mag/cell

     iteration # 12     ecut=    30.00 Ry     beta= 0.50
     Davidson diagonalization with overlap
     ethr =  2.64E-09,  avg # of iterations =  4.4

     total cpu time spent up to now is        7.4 secs

     total energy              =     -55.26538270 Ry
     estimated scf accuracy    <       0.00000020 Ry

     total magnetization       =    -0.00 Bohr mag/cell
     absolute magnetization    =     0.00 Bohr mag/cell

     iteration # 13     ecut=    30.00 Ry     beta= 0.50
     Davidson diagonalization with overlap
     ethr =  2.52E-09,  avg # of iterations =  2.1

     Magnetic moment per site  (integrated on atomic sphere of radius R)
     atom   1 (R=0.413)  charge=  6.0164  magn=  0.0043

     total cpu time spent up to now is        7.8 secs

     End of self-consistent calculation

     Number of k-points >= 100: set verbosity='high' to print the bands.

     the Fermi energy is    33.0713 ev

!    total energy              =     -55.26538490 Ry
     estimated scf accuracy    <       0.00000004 Ry
     smearing contrib. (-TS)   =       0.00008890 Ry
     internal energy E=F+TS    =     -55.26547380 Ry

     The total energy is F=E-TS. E is the sum of the following terms:
     one-electron contribution =      24.88818963 Ry
     hartree contribution      =       3.27081616 Ry
     xc contribution           =     -27.40122413 Ry
     ewald contribution        =     -56.02325547 Ry

     total magnetization       =     0.00 Bohr mag/cell
     absolute magnetization    =     0.00 Bohr mag/cell

     convergence has been achieved in  13 iterations

     Forces acting on atoms (cartesian axes, Ry/au):

     atom    1 type  1   force =     0.00000000    0.00000000    0.00000000

     Total force =     0.000000     Total SCF correction =     0.000000


     Computing stress (Cartesian axis) and pressure

          total   stress  (Ry/bohr**3)                   (kbar)     P=     7280.16
   0.04948954   0.00000000  -0.00000000         7280.16        0.00       -0.00
  -0.00000000   0.04948954  -0.00000000           -0.00     7280.16       -0.00
  -0.00000000  -0.00000000   0.04948954           -0.00       -0.00     7280.16

     Message from routine punch:
     Nothing written, as per user request (disk_io='none')

     init_run     :      0.56s CPU      0.67s WALL (       1 calls)
     electrons    :      6.11s CPU      6.94s WALL (       1 calls)
     forces       :      0.05s CPU      0.05s WALL (       1 calls)
     stress       :      0.19s CPU      0.20s WALL (       1 calls)

     Called by init_run:
     wfcinit      :      0.13s CPU      0.19s WALL (       1 calls)
     potinit      :      0.03s CPU      0.04s WALL (       1 calls)
     hinit0       :      0.38s CPU      0.41s WALL (       1 calls)

     Called by electrons:
     c_bands      :      5.17s CPU      5.85s WALL (      13 calls)
     sum_band     :      0.76s CPU      0.90s WALL (      13 calls)
     v_of_rho     :      0.08s CPU      0.08s WALL (      14 calls)
     newd         :      0.10s CPU      0.10s WALL (      14 calls)
     mix_rho      :      0.01s CPU      0.01s WALL (      13 calls)

     Called by c_bands:
     init_us_2    :      0.13s CPU      0.16s WALL (    6032 calls)
     cegterg      :      4.86s CPU      5.50s WALL (    2704 calls)

     Called by *egterg:
     cdiaghg      :      0.95s CPU      1.09s WALL (   11119 calls)
     h_psi        :      3.22s CPU      3.66s WALL (   11327 calls)
     s_psi        :      0.06s CPU      0.07s WALL (   11327 calls)
     g_psi        :      0.02s CPU      0.02s WALL (    8415 calls)

     Called by h_psi:
     h_psi:calbec :      0.22s CPU      0.25s WALL (   11327 calls)
     vloc_psi     :      2.82s CPU      3.20s WALL (   11327 calls)
     add_vuspsi   :      0.07s CPU      0.08s WALL (   11327 calls)

     General routines
     calbec       :      0.27s CPU      0.32s WALL (   17567 calls)
     fft          :      0.16s CPU      0.18s WALL (     388 calls)
     ffts         :      0.02s CPU      0.02s WALL (      54 calls)
     fftw         :      2.68s CPU      3.07s WALL (  141964 calls)
     interpolate  :      0.02s CPU      0.02s WALL (      28 calls)

     Parallel routines

     PWSCF        :      7.08s CPU      8.08s WALL


   This run was terminated on:   0:42:53  21Oct2025            

=------------------------------------------------------------------------------=
   JOB DONE.
=------------------------------------------------------------------------------=
