
     Program PWSCF v.7.4.1 starts on 21Oct2025 at 18: 2:20 

     This program is part of the open-source Quantum ESPRESSO suite
     for quantum simulation of materials; please cite
         "P. Giannozzi et al., J. Phys.:Condens. Matter 21 395502 (2009);
         "P. Giannozzi et al., J. Phys.:Condens. Matter 29 465901 (2017);
         "P. Giannozzi et al., J. Chem. Phys. 152 154105 (2020);
          URL http://www.quantum-espresso.org", 
     in publications or presentations arising from this work. More details at
     http://www.quantum-espresso.org/quote

     Parallel version (MPI), running on     2 processors

     MPI processes distributed on     1 nodes
     300 MiB available memory on the printing compute node when the environment starts

     Waiting for input...
     Reading input from standard input

     Current dimensions of program PWSCF are:
     Max number of different atomic species (ntypx) = 10
     Max number of k-points (npk) =  40000
     Max angular momentum in pseudopotentials (lmaxx) =  4
     file Cu.pz-d-rrkjus.UPF: wavefunction(s)  3D renormalized
     Message from routine setup:
     using ibrav=0 with symmetry is DISCOURAGED, use correct ibrav instead

     R & G space division:  proc/nbgrp/npool/nimage =       2
     Subspace diagonalization in iterative solution of the eigenvalue problem:
     a serial algorithm will be used


     Parallelization info
     --------------------
     sticks:   dense  smooth     PW     G-vecs:    dense   smooth      PW
     Min         255     126     45                 3815     1365     304
     Max         256     127     46                 3816     1368     305
     Sum         511     253     91                 7631     2733     609

     Using Slab Decomposition



     bravais-lattice index     =            0
     lattice parameter (alat)  =       4.8105  a.u.
     unit-cell volume          =      78.7126 (a.u.)^3
     number of atoms/cell      =            1
     number of atomic types    =            1
     number of electrons       =        11.00
     number of Kohn-Sham states=           10
     kinetic-energy cutoff     =      40.0000  Ry
     charge density cutoff     =     320.0000  Ry
     scf convergence threshold =      1.0E-07
     mixing beta               =       0.7000
     number of iterations used =            8  plain     mixing
     energy convergence thresh.=      1.0E-04
     force convergence thresh. =      1.0E-03
     press convergence thresh. =      5.0E-01
     Exchange-correlation=  SLA  PZ   NOGX NOGC
                           (   1   1   0   0   0   0   0)
     nstep                     =           50


     celldm(1)=   4.810457  celldm(2)=   0.000000  celldm(3)=   0.000000
     celldm(4)=   0.000000  celldm(5)=   0.000000  celldm(6)=   0.000000

     crystal axes: (cart. coord. in units of alat)
               a(1) = (   0.000000   0.707107   0.707107 )  
               a(2) = (   0.707107   0.000000   0.707107 )  
               a(3) = (   0.707107   0.707107   0.000000 )  

     reciprocal axes: (cart. coord. in units 2 pi/alat)
               b(1) = ( -0.707107  0.707107  0.707107 )  
               b(2) = (  0.707107 -0.707107  0.707107 )  
               b(3) = (  0.707107  0.707107 -0.707107 )  


     PseudoPot. # 1 for Cu read from file:
     /home/bond/Software/QE/qe-7.4.1/pseudo/Cu.pz-d-rrkjus.UPF
     MD5 check sum: fd38ae683e239c95a66f426e1f8e5fc7
     Pseudo is Ultrasoft, Zval = 11.0
     Generated by new atomic code, or converted to UPF format
     Using radial grid of  899 points,  3 beta functions with: 
                l(1) =   2
                l(2) =   2
                l(3) =   1
     Q(r) pseudized with 0 coefficients 


     atomic species   valence    mass     pseudopotential
     Cu               11.00    63.54600     Cu( 1.00)

     48 Sym. Ops., with inversion, found



   Cartesian axes

     site n.     atom                  positions (alat units)
         1        Cu     tau(   1) = (   0.0000000   0.0000000   0.0000000  )

     number of k points=   280  Methfessel-Paxton smearing, width (Ry)=  0.0200

     Number of k-points >= 100: set verbosity='high' to print them.

     Dense  grid:     7631 G-vectors     FFT dimensions: (  27,  27,  27)

     Smooth grid:     2733 G-vectors     FFT dimensions: (  20,  20,  20)

     Estimated max dynamical RAM per process >      17.37 MB

     Estimated total dynamical RAM >      34.74 MB

     Initial potential from superposition of free atoms

     starting charge      10.9997, renormalised to      11.0000
     Starting wfcs are    6 randomized atomic wfcs +    4 random wfcs

     total cpu time spent up to now is        1.1 secs

     Self-consistent Calculation

     iteration #  1     ecut=    40.00 Ry     beta= 0.70
     Davidson diagonalization with overlap
     ethr =  1.00E-02,  avg # of iterations =  5.6

     total cpu time spent up to now is        2.9 secs

     total energy              =     -87.72695450 Ry
     estimated scf accuracy    <       0.24663973 Ry

     iteration #  2     ecut=    40.00 Ry     beta= 0.70
     Davidson diagonalization with overlap
     ethr =  2.24E-03,  avg # of iterations =  2.0

     total cpu time spent up to now is        4.1 secs

     total energy              =     -87.80994802 Ry
     estimated scf accuracy    <       0.20610436 Ry

     iteration #  3     ecut=    40.00 Ry     beta= 0.70
     Davidson diagonalization with overlap
     ethr =  1.87E-03,  avg # of iterations =  1.1

     total cpu time spent up to now is        4.9 secs

     total energy              =     -87.84228145 Ry
     estimated scf accuracy    <       0.00118416 Ry

     iteration #  4     ecut=    40.00 Ry     beta= 0.70
     Davidson diagonalization with overlap
     ethr =  1.08E-05,  avg # of iterations =  2.7

     total cpu time spent up to now is        6.2 secs

     total energy              =     -87.84271182 Ry
     estimated scf accuracy    <       0.00003453 Ry

     iteration #  5     ecut=    40.00 Ry     beta= 0.70
     Davidson diagonalization with overlap
     ethr =  3.14E-07,  avg # of iterations =  1.3

     total cpu time spent up to now is        7.1 secs

     total energy              =     -87.84270871 Ry
     estimated scf accuracy    <       0.00001010 Ry

     iteration #  6     ecut=    40.00 Ry     beta= 0.70
     Davidson diagonalization with overlap
     ethr =  9.18E-08,  avg # of iterations =  1.0

     total cpu time spent up to now is        8.4 secs

     End of self-consistent calculation

     Number of k-points >= 100: set verbosity='high' to print the bands.

     the Fermi energy is    13.9242 ev

!    total energy              =     -87.84271051 Ry
     estimated scf accuracy    <       0.00000001 Ry
     smearing contrib. (-TS)   =       0.00004966 Ry
     internal energy E=F+TS    =     -87.84276017 Ry

     The total energy is F=E-TS. E is the sum of the following terms:
     one-electron contribution =     -11.60358811 Ry
     hartree contribution      =      19.34633566 Ry
     xc contribution           =     -14.03807786 Ry
     ewald contribution        =     -81.54742986 Ry

     convergence has been achieved in   6 iterations


     Computing stress (Cartesian axis) and pressure

          total   stress  (Ry/bohr**3)                   (kbar)     P=      -65.45
  -0.00044492  -0.00000000  -0.00000000          -65.45       -0.00       -0.00
  -0.00000000  -0.00044492  -0.00000000           -0.00      -65.45       -0.00
  -0.00000000  -0.00000000  -0.00044492           -0.00       -0.00      -65.45


     BFGS Geometry Optimization
     Energy error            =      1.2E-03 Ry
     Gradient error          =      0.0E+00 Ry/Bohr
     Cell gradient error     =      6.5E+01 kbar

     number of scf cycles    =   1
     number of bfgs steps    =   0

     enthalpy           new  =     -87.8427105139 Ry

     new trust radius        =       0.0197367445 bohr
     new conv_thr            =       0.0000001000 Ry

     new unit-cell volume =     76.11511 a.u.^3 (    11.27910 Ang^3 )
     density =      9.35541 g/cm^3

CELL_PARAMETERS (angstrom)
  -0.000000000   1.779978529   1.779978529
   1.779978529  -0.000000000   1.779978529
   1.779978529   1.779978529  -0.000000000

ATOMIC_POSITIONS (angstrom)
Cu               0.0000000000        0.0000000000        0.0000000000    0   0   0


     Message from routine punch:
     Nothing written, as per user request (disk_io='none')
     NEW-OLD atomic charge density approx. for the potential
     New effective cutoffs (rho, wfc):  324.50   40.90

     total cpu time spent up to now is        8.8 secs

     Self-consistent Calculation

     iteration #  1     ecut=    40.00 Ry     beta= 0.70
     Davidson diagonalization with overlap
     ethr =  1.00E-06,  avg # of iterations =  4.0

     total cpu time spent up to now is       10.6 secs

     total energy              =     -87.84339838 Ry
     estimated scf accuracy    <       0.00001904 Ry

     iteration #  2     ecut=    40.00 Ry     beta= 0.70
     Davidson diagonalization with overlap
     ethr =  1.73E-07,  avg # of iterations =  1.9

     total cpu time spent up to now is       11.6 secs

     total energy              =     -87.84340255 Ry
     estimated scf accuracy    <       0.00001260 Ry

     iteration #  3     ecut=    40.00 Ry     beta= 0.70
     Davidson diagonalization with overlap
     ethr =  1.15E-07,  avg # of iterations =  1.0

     total cpu time spent up to now is       12.4 secs

     total energy              =     -87.84340521 Ry
     estimated scf accuracy    <       0.00000013 Ry

     iteration #  4     ecut=    40.00 Ry     beta= 0.70
     Davidson diagonalization with overlap
     ethr =  1.15E-09,  avg # of iterations =  1.6

     total cpu time spent up to now is       13.4 secs

     End of self-consistent calculation

     Number of k-points >= 100: set verbosity='high' to print the bands.

     the Fermi energy is    14.5719 ev

!    total energy              =     -87.84340523 Ry
     estimated scf accuracy    <          2.5E-10 Ry
     smearing contrib. (-TS)   =       0.00005432 Ry
     internal energy E=F+TS    =     -87.84345955 Ry

     The total energy is F=E-TS. E is the sum of the following terms:
     one-electron contribution =     -10.19630792 Ry
     hartree contribution      =      18.87417850 Ry
     xc contribution           =     -14.05664231 Ry
     ewald contribution        =     -82.46468782 Ry

     convergence has been achieved in   4 iterations


     Computing stress (Cartesian axis) and pressure

          total   stress  (Ry/bohr**3)                   (kbar)     P=      -12.97
  -0.00008820   0.00000000   0.00000000          -12.97        0.00        0.00
   0.00000000  -0.00008820  -0.00000000            0.00      -12.97       -0.00
   0.00000000  -0.00000000  -0.00008820            0.00       -0.00      -12.97

     Energy error            =      6.9E-04 Ry
     Gradient error          =      0.0E+00 Ry/Bohr
     Cell gradient error     =      1.3E+01 kbar

     number of scf cycles    =   2
     number of bfgs steps    =   1

     enthalpy           old  =     -87.8427105139 Ry
     enthalpy           new  =     -87.8434052295 Ry

     CASE: enthalpy          _new < enthalpy          _old

     new trust radius        =       0.0047194162 bohr
     new conv_thr            =       0.0000000010 Ry

     new unit-cell volume =     75.49917 a.u.^3 (    11.18782 Ang^3 )
     density =      9.43174 g/cm^3

CELL_PARAMETERS (angstrom)
  -0.000000000   1.775164180   1.775164180
   1.775164180  -0.000000000   1.775164180
   1.775164180   1.775164180  -0.000000000

ATOMIC_POSITIONS (angstrom)
Cu               0.0000000000        0.0000000000        0.0000000000    0   0   0


     Message from routine punch:
     Nothing written, as per user request (disk_io='none')
     NEW-OLD atomic charge density approx. for the potential
     New effective cutoffs (rho, wfc):  326.26   41.13

     total cpu time spent up to now is       13.8 secs

     Self-consistent Calculation

     iteration #  1     ecut=    40.00 Ry     beta= 0.70
     Davidson diagonalization with overlap
     ethr =  1.00E-06,  avg # of iterations =  3.0

     Threshold (ethr) on eigenvalues was too large:
     Diagonalizing with lowered threshold

     Davidson diagonalization with overlap
     ethr =  8.80E-09,  avg # of iterations =  1.2

     total cpu time spent up to now is       16.0 secs

     total energy              =     -87.84342441 Ry
     estimated scf accuracy    <       0.00000101 Ry

     iteration #  2     ecut=    40.00 Ry     beta= 0.70
     Davidson diagonalization with overlap
     ethr =  9.16E-09,  avg # of iterations =  2.0

     total cpu time spent up to now is       17.0 secs

     total energy              =     -87.84342462 Ry
     estimated scf accuracy    <       0.00000066 Ry

     iteration #  3     ecut=    40.00 Ry     beta= 0.70
     Davidson diagonalization with overlap
     ethr =  5.96E-09,  avg # of iterations =  1.0

     total cpu time spent up to now is       18.0 secs

     total energy              =     -87.84342476 Ry
     estimated scf accuracy    <          7.5E-09 Ry

     iteration #  4     ecut=    40.00 Ry     beta= 0.70
     Davidson diagonalization with overlap
     ethr =  6.78E-11,  avg # of iterations =  1.2

     total cpu time spent up to now is       18.9 secs

     End of self-consistent calculation

     Number of k-points >= 100: set verbosity='high' to print the bands.

     the Fermi energy is    14.7323 ev

!    total energy              =     -87.84342476 Ry
     estimated scf accuracy    <          1.9E-11 Ry
     smearing contrib. (-TS)   =       0.00005536 Ry
     internal energy E=F+TS    =     -87.84348012 Ry

     The total energy is F=E-TS. E is the sum of the following terms:
     one-electron contribution =      -9.85419364 Ry
     hartree contribution      =      18.76036017 Ry
     xc contribution           =     -14.06130977 Ry
     ewald contribution        =     -82.68833689 Ry

     convergence has been achieved in   4 iterations


     Computing stress (Cartesian axis) and pressure

          total   stress  (Ry/bohr**3)                   (kbar)     P=        0.87
   0.00000594  -0.00000000   0.00000000            0.87       -0.00        0.00
  -0.00000000   0.00000594   0.00000000           -0.00        0.87        0.00
   0.00000000   0.00000000   0.00000594            0.00        0.00        0.87

     Energy error            =      2.0E-05 Ry
     Gradient error          =      0.0E+00 Ry/Bohr
     Cell gradient error     =      8.7E-01 kbar

     number of scf cycles    =   3
     number of bfgs steps    =   2

     enthalpy           old  =     -87.8434052295 Ry
     enthalpy           new  =     -87.8434247587 Ry

     CASE: enthalpy          _new < enthalpy          _old

     new trust radius        =       0.0002958322 bohr
     new conv_thr            =       0.0000000010 Ry

     new unit-cell volume =     75.53773 a.u.^3 (    11.19354 Ang^3 )
     density =      9.42692 g/cm^3

CELL_PARAMETERS (angstrom)
  -0.000000000   1.775466372   1.775466372
   1.775466372  -0.000000000   1.775466372
   1.775466372   1.775466372  -0.000000000

ATOMIC_POSITIONS (angstrom)
Cu               0.0000000000        0.0000000000        0.0000000000    0   0   0


     Message from routine punch:
     Nothing written, as per user request (disk_io='none')
     NEW-OLD atomic charge density approx. for the potential
     New effective cutoffs (rho, wfc):  326.15   41.11

     total cpu time spent up to now is       19.4 secs

     Self-consistent Calculation

     iteration #  1     ecut=    40.00 Ry     beta= 0.70
     Davidson diagonalization with overlap
     ethr =  1.00E-06,  avg # of iterations =  2.0

     Threshold (ethr) on eigenvalues was too large:
     Diagonalizing with lowered threshold

     Davidson diagonalization with overlap
     ethr =  3.85E-11,  avg # of iterations =  2.1

     total cpu time spent up to now is       21.7 secs

     total energy              =     -87.84342489 Ry
     estimated scf accuracy    <          4.4E-09 Ry

     iteration #  2     ecut=    40.00 Ry     beta= 0.70
     Davidson diagonalization with overlap
     ethr =  4.03E-11,  avg # of iterations =  2.0

     total cpu time spent up to now is       22.7 secs

     total energy              =     -87.84342489 Ry
     estimated scf accuracy    <          2.9E-09 Ry

     iteration #  3     ecut=    40.00 Ry     beta= 0.70
     Davidson diagonalization with overlap
     ethr =  2.67E-11,  avg # of iterations =  1.0

     total cpu time spent up to now is       23.7 secs

     End of self-consistent calculation

     Number of k-points >= 100: set verbosity='high' to print the bands.

     the Fermi energy is    14.7221 ev

!    total energy              =     -87.84342489 Ry
     estimated scf accuracy    <          2.9E-11 Ry
     smearing contrib. (-TS)   =       0.00005530 Ry
     internal energy E=F+TS    =     -87.84348019 Ry

     The total energy is F=E-TS. E is the sum of the following terms:
     one-electron contribution =      -9.87573416 Ry
     hartree contribution      =      18.76753701 Ry
     xc contribution           =     -14.06102006 Ry
     ewald contribution        =     -82.67426298 Ry

     convergence has been achieved in   3 iterations


     Computing stress (Cartesian axis) and pressure

          total   stress  (Ry/bohr**3)                   (kbar)     P=        0.14
   0.00000093   0.00000000   0.00000000            0.14        0.00        0.00
   0.00000000   0.00000093  -0.00000000            0.00        0.14       -0.00
   0.00000000  -0.00000000   0.00000093            0.00       -0.00        0.14

     Energy error            =      1.3E-07 Ry
     Gradient error          =      0.0E+00 Ry/Bohr
     Cell gradient error     =      1.4E-01 kbar

     bfgs converged in   4 scf cycles and   3 bfgs steps
     (criteria: energy <  1.0E-04 Ry, force <  1.0E-03 Ry/Bohr, cell <  5.0E-01 kbar)

     End of BFGS Geometry Optimization

     Final enthalpy           =     -87.8434248906 Ry

     File /home/bond/Work/Lab4/Problem3/Cu_nk_14/pwscf.bfgs deleted, as requested
Begin final coordinates
     new unit-cell volume =     75.53773 a.u.^3 (    11.19354 Ang^3 )
     density =      9.42692 g/cm^3

CELL_PARAMETERS (angstrom)
  -0.000000000   1.775466372   1.775466372
   1.775466372  -0.000000000   1.775466372
   1.775466372   1.775466372  -0.000000000

ATOMIC_POSITIONS (angstrom)
Cu               0.0000000000        0.0000000000        0.0000000000    0   0   0
End final coordinates


     Message from routine punch:
     Nothing written, as per user request (disk_io='none')

     Final scf calculation at the relaxed structure.
     The G-vectors are recalculated for the final unit cell
     Results may differ from those at the preceding step.

     Parallelization info
     --------------------
     sticks:   dense  smooth     PW     G-vecs:    dense   smooth      PW
     Min         249     126     45                 3694     1318     304
     Max         250     127     46                 3697     1319     305
     Sum         499     253     91                 7391     2637     609

     Using Slab Decomposition



     bravais-lattice index     =            0
     lattice parameter (alat)  =       4.8105  a.u.
     unit-cell volume          =      75.5377 (a.u.)^3
     number of atoms/cell      =            1
     number of atomic types    =            1
     number of electrons       =        11.00
     number of Kohn-Sham states=           10
     kinetic-energy cutoff     =      40.0000  Ry
     charge density cutoff     =     320.0000  Ry
     scf convergence threshold =      1.0E-09
     mixing beta               =       0.7000
     number of iterations used =            8  plain     mixing
     press convergence thresh. =      5.0E-01
     Exchange-correlation=  SLA  PZ   NOGX NOGC
                           (   1   1   0   0   0   0   0)

     celldm(1)=   4.810457  celldm(2)=   0.000000  celldm(3)=   0.000000
     celldm(4)=   0.000000  celldm(5)=   0.000000  celldm(6)=   0.000000

     crystal axes: (cart. coord. in units of alat)
               a(1) = (  -0.000000   0.697469   0.697469 )  
               a(2) = (   0.697469  -0.000000   0.697469 )  
               a(3) = (   0.697469   0.697469  -0.000000 )  

     reciprocal axes: (cart. coord. in units 2 pi/alat)
               b(1) = ( -0.716878  0.716878  0.716878 )  
               b(2) = (  0.716878 -0.716878  0.716878 )  
               b(3) = (  0.716878  0.716878 -0.716878 )  


     PseudoPot. # 1 for Cu read from file:
     /home/bond/Software/QE/qe-7.4.1/pseudo/Cu.pz-d-rrkjus.UPF
     MD5 check sum: fd38ae683e239c95a66f426e1f8e5fc7
     Pseudo is Ultrasoft, Zval = 11.0
     Generated by new atomic code, or converted to UPF format
     Using radial grid of  899 points,  3 beta functions with: 
                l(1) =   2
                l(2) =   2
                l(3) =   1
     Q(r) pseudized with 0 coefficients 


     atomic species   valence    mass     pseudopotential
     Cu               11.00    63.54600     Cu( 1.00)

     48 Sym. Ops., with inversion, found



   Cartesian axes

     site n.     atom                  positions (alat units)
         1        Cu     tau(   1) = (   0.0000000   0.0000000   0.0000000  )

     number of k points=   280  Methfessel-Paxton smearing, width (Ry)=  0.0200

     Number of k-points >= 100: set verbosity='high' to print them.

     Dense  grid:     7391 G-vectors     FFT dimensions: (  27,  27,  27)

     Smooth grid:     2637 G-vectors     FFT dimensions: (  20,  20,  20)

     Estimated max dynamical RAM per process >      16.82 MB

     Estimated total dynamical RAM >      33.65 MB

     Initial potential from superposition of free atoms

     starting charge      10.9997, renormalised to      11.0000
     Starting wfcs are    6 randomized atomic wfcs +    4 random wfcs

     total cpu time spent up to now is       24.6 secs

     Self-consistent Calculation

     iteration #  1     ecut=    40.00 Ry     beta= 0.70
     Davidson diagonalization with overlap
     c_bands:  1 eigenvalues not converged
     c_bands:  1 eigenvalues not converged
     c_bands:  2 eigenvalues not converged
     c_bands:  1 eigenvalues not converged
     c_bands:  1 eigenvalues not converged
     ethr =  1.00E-06,  avg # of iterations = 13.2

     total cpu time spent up to now is       28.2 secs

     total energy              =     -87.73115560 Ry
     estimated scf accuracy    <       0.24409317 Ry

     iteration #  2     ecut=    40.00 Ry     beta= 0.70
     Davidson diagonalization with overlap
     ethr =  2.22E-03,  avg # of iterations =  2.0

     total cpu time spent up to now is       29.4 secs

     total energy              =     -87.81255748 Ry
     estimated scf accuracy    <       0.18987801 Ry

     iteration #  3     ecut=    40.00 Ry     beta= 0.70
     Davidson diagonalization with overlap
     ethr =  1.73E-03,  avg # of iterations =  1.0

     total cpu time spent up to now is       30.2 secs

     total energy              =     -87.84306456 Ry
     estimated scf accuracy    <       0.00090648 Ry

     iteration #  4     ecut=    40.00 Ry     beta= 0.70
     Davidson diagonalization with overlap
     ethr =  8.24E-06,  avg # of iterations =  2.1

     total cpu time spent up to now is       31.3 secs

     total energy              =     -87.84341512 Ry
     estimated scf accuracy    <       0.00003016 Ry

     iteration #  5     ecut=    40.00 Ry     beta= 0.70
     Davidson diagonalization with overlap
     ethr =  2.74E-07,  avg # of iterations =  1.1

     total cpu time spent up to now is       32.2 secs

     total energy              =     -87.84341248 Ry
     estimated scf accuracy    <       0.00000865 Ry

     iteration #  6     ecut=    40.00 Ry     beta= 0.70
     Davidson diagonalization with overlap
     ethr =  7.86E-08,  avg # of iterations =  1.0

     total cpu time spent up to now is       33.3 secs

     total energy              =     -87.84341402 Ry
     estimated scf accuracy    <       0.00000001 Ry

     iteration #  7     ecut=    40.00 Ry     beta= 0.70
     Davidson diagonalization with overlap
     ethr =  9.77E-11,  avg # of iterations =  2.4

     total cpu time spent up to now is       34.4 secs

     End of self-consistent calculation

     Number of k-points >= 100: set verbosity='high' to print the bands.

     the Fermi energy is    14.7222 ev

!    total energy              =     -87.84341403 Ry
     estimated scf accuracy    <          1.5E-10 Ry
     smearing contrib. (-TS)   =       0.00005530 Ry
     internal energy E=F+TS    =     -87.84346933 Ry

     The total energy is F=E-TS. E is the sum of the following terms:
     one-electron contribution =      -9.87569310 Ry
     hartree contribution      =      18.76751396 Ry
     xc contribution           =     -14.06102721 Ry
     ewald contribution        =     -82.67426298 Ry

     convergence has been achieved in   7 iterations


     Computing stress (Cartesian axis) and pressure

          total   stress  (Ry/bohr**3)                   (kbar)     P=       -0.33
  -0.00000224  -0.00000000  -0.00000000           -0.33       -0.00       -0.00
  -0.00000000  -0.00000224   0.00000000           -0.00       -0.33        0.00
  -0.00000000   0.00000000  -0.00000224           -0.00        0.00       -0.33

     Message from routine punch:
     Nothing written, as per user request (disk_io='none')

     init_run     :      1.36s CPU      1.44s WALL (       2 calls)
     electrons    :     28.67s CPU     31.14s WALL (       5 calls)
     update_pot   :      0.01s CPU      0.01s WALL (       3 calls)
     stress       :      2.03s CPU      2.08s WALL (       5 calls)

     Called by init_run:
     wfcinit      :      0.76s CPU      0.82s WALL (       2 calls)
     potinit      :      0.17s CPU      0.17s WALL (       2 calls)
     hinit0       :      0.37s CPU      0.38s WALL (       2 calls)

     Called by electrons:
     c_bands      :     24.74s CPU     26.88s WALL (      26 calls)
     sum_band     :      3.66s CPU      3.99s WALL (      26 calls)
     v_of_rho     :      0.03s CPU      0.03s WALL (      29 calls)
     newd         :      0.24s CPU      0.26s WALL (      29 calls)
     mix_rho      :      0.01s CPU      0.01s WALL (      26 calls)

     Called by c_bands:
     init_us_2    :      0.82s CPU      0.90s WALL (   16520 calls)
     cegterg      :     23.31s CPU     25.31s WALL (    7280 calls)

     Called by *egterg:
     cdiaghg      :      3.16s CPU      3.43s WALL (   22882 calls)
     h_psi        :     17.36s CPU     18.86s WALL (   24842 calls)
     s_psi        :      0.27s CPU      0.30s WALL (   24842 calls)
     g_psi        :      0.12s CPU      0.13s WALL (   17002 calls)

     Called by h_psi:
     h_psi:calbec :      0.85s CPU      0.93s WALL (   24842 calls)
     vloc_psi     :     15.90s CPU     17.27s WALL (   24842 calls)
     add_vuspsi   :      0.31s CPU      0.34s WALL (   24842 calls)

     General routines
     calbec       :      1.43s CPU      1.55s WALL (   50322 calls)
     fft          :      0.10s CPU      0.11s WALL (     179 calls)
     ffts         :      0.15s CPU      0.15s WALL (      55 calls)
     fftw         :     14.81s CPU     16.10s WALL (  463902 calls)
     interpolate  :      0.15s CPU      0.16s WALL (      29 calls)

     Parallel routines

     PWSCF        :     32.21s CPU     34.83s WALL


   This run was terminated on:  18: 2:55  21Oct2025            

=------------------------------------------------------------------------------=
   JOB DONE.
=------------------------------------------------------------------------------=
