LAMMPS (22 Jul 2025 - Update 1)
# ---------- 1. Initialize simulation ---------------------
units metal
atom_style atomic
dimension  3
boundary   p p f
read_data /home/bond/Work/Lab1/Surface/EAM/relax/5_6_110/lammps.data
Reading data file ...
  orthogonal box = (0 0 0) to (12.244965 8.6584976 17.772332)
  1 by 1 by 1 MPI processor grid
  reading atoms ...
  45 atoms
  read_data CPU = 0.001 seconds

# ---------- 2. Specify interatomic potential ---------------------
pair_style eam/alloy
pair_coeff * * /home/bond/Software/LAMMPS/lammps-22Jul2025/potentials/Al_zhou.eam.alloy  Al
Reading eam/alloy potential file /home/bond/Software/LAMMPS/lammps-22Jul2025/potentials/Al_zhou.eam.alloy with DATE: 2007-10-12

# pair_style lj/cut 4.5
# pair_coeff 1 1 0.392 2.620 4.5

# ---------- 3. Run single point calculation  ---------------------
thermo_style custom step pe lx ly lz press pxx pyy pzz
run 0
WARNING: No fixes with time integration, atoms won't move
For more information see https://docs.lammps.org/err0028 (../verlet.cpp:60)
Neighbor list info ...
  update: every = 1 steps, delay = 0 steps, check = yes
  max neighbors/atom: 2000, page size: 100000
  master list distance cutoff = 12.1025
  ghost atom cutoff = 12.1025
  binsize = 6.05125, bins = 3 2 3
  1 neighbor lists, perpetual/occasional/extra = 1 0 0
  (1) pair eam/alloy, perpetual
      attributes: half, newton on
      pair build: half/bin/atomonly/newton
      stencil: half/bin/3d
      bin: standard
Per MPI rank memory allocation (min/avg/max) = 3.312 | 3.312 | 3.312 Mbytes
   Step         PotEng           Lx             Ly             Lz           Press           Pxx            Pyy            Pzz      
         0  -148.09692      12.244965      8.6584976      17.772332     -22135.837     -27235.711     -25545.478     -13626.323    
Loop time of 2.018e-06 on 1 procs for 0 steps with 45 atoms

148.7% CPU use with 1 MPI tasks x no OpenMP threads

MPI task timing breakdown:
Section |  min time  |  avg time  |  max time  |%varavg| %total
---------------------------------------------------------------
Pair    | 0          | 0          | 0          |   0.0 |  0.00
Neigh   | 0          | 0          | 0          |   0.0 |  0.00
Comm    | 0          | 0          | 0          |   0.0 |  0.00
Output  | 0          | 0          | 0          |   0.0 |  0.00
Modify  | 0          | 0          | 0          |   0.0 |  0.00
Other   |            | 2.018e-06  |            |       |100.00

Nlocal:             45 ave          45 max          45 min
Histogram: 1 0 0 0 0 0 0 0 0 0
Nghost:            441 ave         441 max         441 min
Histogram: 1 0 0 0 0 0 0 0 0 0
Neighs:           4068 ave        4068 max        4068 min
Histogram: 1 0 0 0 0 0 0 0 0 0

Total # of neighbors = 4068
Ave neighs/atom = 90.4
Neighbor list builds = 0
Dangerous builds = 0
# -- include optimization of the unit cell parameter
#fix 1 all box/relax x 0.0 y 0.0 couple xy vmax 0.001

# -- enable optimization of atomic positions (and the cell)
min_style cg
minimize 1e-10 1e-10 1000 10000
Per MPI rank memory allocation (min/avg/max) = 4.437 | 4.437 | 4.437 Mbytes
   Step         PotEng           Lx             Ly             Lz           Press           Pxx            Pyy            Pzz      
         0  -148.09692      12.244965      8.6584976      17.772332     -22135.837     -27235.711     -25545.478     -13626.323    
         6  -148.47256      12.244965      8.6584976      17.772332     -10776.457     -16202.065     -16127.285     -0.020503487  
Loop time of 0.0025301 on 1 procs for 6 steps with 45 atoms

34.3% CPU use with 1 MPI tasks x no OpenMP threads

Minimization stats:
  Stopping criterion = energy tolerance
  Energy initial, next-to-last, final = 
     -148.096919410441  -148.472562786951  -148.472562788667
  Force two-norm initial, final = 1.4439428 2.1049035e-05
  Force max component initial, final = 0.33590817 5.0679216e-06
  Final line search alpha, max atom move = 1 5.0679216e-06
  Iterations, force evaluations = 6 11

MPI task timing breakdown:
Section |  min time  |  avg time  |  max time  |%varavg| %total
---------------------------------------------------------------
Pair    | 0.0024489  | 0.0024489  | 0.0024489  |   0.0 | 96.79
Neigh   | 0          | 0          | 0          |   0.0 |  0.00
Comm    | 2.7169e-05 | 2.7169e-05 | 2.7169e-05 |   0.0 |  1.07
Output  | 0          | 0          | 0          |   0.0 |  0.00
Modify  | 0          | 0          | 0          |   0.0 |  0.00
Other   |            | 5.406e-05  |            |       |  2.14

Nlocal:             45 ave          45 max          45 min
Histogram: 1 0 0 0 0 0 0 0 0 0
Nghost:            441 ave         441 max         441 min
Histogram: 1 0 0 0 0 0 0 0 0 0
Neighs:           4068 ave        4068 max        4068 min
Histogram: 1 0 0 0 0 0 0 0 0 0

Total # of neighbors = 4068
Ave neighs/atom = 90.4
Neighbor list builds = 0
Dangerous builds = 0

# ---- 4. Define and print useful variables -------------
variable natoms equal "count(all)"
variable totenergy equal "pe"
variable length equal "lx"

print "Total energy (eV) = ${totenergy}"
Total energy (eV) = -148.472562788667
print "Number of atoms = ${natoms}"
Number of atoms = 45
print "Lattice constant (Angstoms) = ${length}"
Lattice constant (Angstoms) = 12.2449647145904
Total wall time: 0:00:00
