
     Program PWSCF v.7.4.1 starts on  8Oct2025 at  1:58:30 

     This program is part of the open-source Quantum ESPRESSO suite
     for quantum simulation of materials; please cite
         "P. Giannozzi et al., J. Phys.:Condens. Matter 21 395502 (2009);
         "P. Giannozzi et al., J. Phys.:Condens. Matter 29 465901 (2017);
         "P. Giannozzi et al., J. Chem. Phys. 152 154105 (2020);
          URL http://www.quantum-espresso.org", 
     in publications or presentations arising from this work. More details at
     http://www.quantum-espresso.org/quote

     Parallel version (MPI), running on     1 processors

     MPI processes distributed on     1 nodes
     291 MiB available memory on the printing compute node when the environment starts

     Waiting for input...
     Reading input from standard input
Warning: card &CELL ignored
Warning: card / ignored

     Current dimensions of program PWSCF are:
     Max number of different atomic species (ntypx) = 10
     Max number of k-points (npk) =  40000
     Max angular momentum in pseudopotentials (lmaxx) =  4
     Message from routine setup:
     using ibrav=0 with symmetry is DISCOURAGED, use correct ibrav instead

     Subspace diagonalization in iterative solution of the eigenvalue problem:
     a serial algorithm will be used


     G-vector sticks info
     --------------------
     sticks:   dense  smooth     PW     G-vecs:    dense   smooth      PW
     Sum         379     379    121                 5029     5029     941

     Using Slab Decomposition



     bravais-lattice index     =            0
     lattice parameter (alat)  =       7.4829  a.u.
     unit-cell volume          =     296.2789 (a.u.)^3
     number of atoms/cell      =            2
     number of atomic types    =            1
     number of electrons       =        28.00
     number of Kohn-Sham states=           14
     kinetic-energy cutoff     =      25.0000  Ry
     charge density cutoff     =     100.0000  Ry
     scf convergence threshold =      1.0E-07
     mixing beta               =       0.5000
     number of iterations used =            8  plain     mixing
     Exchange-correlation=  SLA  PZ   NOGX NOGC
                           (   1   1   0   0   0   0   0)

     celldm(1)=   7.482934  celldm(2)=   0.000000  celldm(3)=   0.000000
     celldm(4)=   0.000000  celldm(5)=   0.000000  celldm(6)=   0.000000

     crystal axes: (cart. coord. in units of alat)
               a(1) = (   0.000000   0.707107   0.707107 )  
               a(2) = (   0.707107   0.000000   0.707107 )  
               a(3) = (   0.707107   0.707107   0.000000 )  

     reciprocal axes: (cart. coord. in units 2 pi/alat)
               b(1) = ( -0.707107  0.707107  0.707107 )  
               b(2) = (  0.707107 -0.707107  0.707107 )  
               b(3) = (  0.707107  0.707107 -0.707107 )  


     PseudoPot. # 1 for Ge read from file:
     /home/bond/Software/QE/qe-7.4.1/pseudo/ge_lda_v1.4.uspp.F.UPF
     MD5 check sum: bf9d52b59cc8a669818bb2b52e0c2ba0
     Pseudo is Ultrasoft + core correction, Zval = 14.0
     Generated by new atomic code, or converted to UPF format
     Using radial grid of  873 points,  6 beta functions with: 
                l(1) =   0
                l(2) =   0
                l(3) =   1
                l(4) =   1
                l(5) =   2
                l(6) =   2
     Q(r) pseudized with  8 coefficients,  rinner =    1.400   1.400   1.400
                                                       1.400   1.400

     atomic species   valence    mass     pseudopotential
     Ge               14.00    72.63000     Ge( 1.00)

     48 Sym. Ops., with inversion, found (24 have fractional translation)



   Cartesian axes

     site n.     atom                  positions (alat units)
         1        Ge     tau(   1) = (   0.0000000   0.0000000   0.0000000  )
         2        Ge     tau(   2) = (   0.3535534   0.3535534   0.3535534  )

     number of k points=    47
                       cart. coord. in units 2pi/alat
        k(    1) = (   0.0000000   0.0000000   0.0000000), wk =   0.0020000
        k(    2) = (   0.0707107   0.0707107  -0.0707107), wk =   0.0160000
        k(    3) = (   0.1414214   0.1414214  -0.1414214), wk =   0.0160000
        k(    4) = (   0.2121320   0.2121320  -0.2121320), wk =   0.0160000
        k(    5) = (   0.2828427   0.2828427  -0.2828427), wk =   0.0160000
        k(    6) = (  -0.3535534  -0.3535534   0.3535534), wk =   0.0080000
        k(    7) = (   0.1414214   0.0000000   0.0000000), wk =   0.0120000
        k(    8) = (   0.2121320   0.0707107  -0.0707107), wk =   0.0480000
        k(    9) = (   0.2828427   0.1414214  -0.1414214), wk =   0.0480000
        k(   10) = (   0.3535534   0.2121320  -0.2121320), wk =   0.0480000
        k(   11) = (  -0.2828427  -0.4242641   0.4242641), wk =   0.0480000
        k(   12) = (  -0.2121320  -0.3535534   0.3535534), wk =   0.0480000
        k(   13) = (  -0.1414214  -0.2828427   0.2828427), wk =   0.0480000
        k(   14) = (  -0.0707107  -0.2121320   0.2121320), wk =   0.0480000
        k(   15) = (   0.0000000  -0.1414214   0.1414214), wk =   0.0240000
        k(   16) = (   0.2828427   0.0000000   0.0000000), wk =   0.0120000
        k(   17) = (   0.3535534   0.0707107  -0.0707107), wk =   0.0480000
        k(   18) = (   0.4242641   0.1414214  -0.1414214), wk =   0.0480000
        k(   19) = (  -0.2121320  -0.4949747   0.4949747), wk =   0.0480000
        k(   20) = (  -0.1414214  -0.4242641   0.4242641), wk =   0.0480000
        k(   21) = (  -0.0707107  -0.3535534   0.3535534), wk =   0.0480000
        k(   22) = (   0.0000000  -0.2828427   0.2828427), wk =   0.0240000
        k(   23) = (   0.4242641   0.0000000   0.0000000), wk =   0.0120000
        k(   24) = (   0.4949747   0.0707107  -0.0707107), wk =   0.0480000
        k(   25) = (  -0.1414214  -0.5656854   0.5656854), wk =   0.0480000
        k(   26) = (  -0.0707107  -0.4949747   0.4949747), wk =   0.0480000
        k(   27) = (  -0.0000000  -0.4242641   0.4242641), wk =   0.0240000
        k(   28) = (   0.5656854   0.0000000   0.0000000), wk =   0.0120000
        k(   29) = (  -0.0707107  -0.6363961   0.6363961), wk =   0.0480000
        k(   30) = (   0.0000000  -0.5656854   0.5656854), wk =   0.0240000
        k(   31) = (  -0.7071068   0.0000000   0.0000000), wk =   0.0060000
        k(   32) = (   0.2828427   0.1414214   0.0000000), wk =   0.0480000
        k(   33) = (   0.3535534   0.2121320  -0.0707107), wk =   0.0960000
        k(   34) = (  -0.2828427  -0.4242641   0.5656854), wk =   0.0960000
        k(   35) = (  -0.2121320  -0.3535534   0.4949747), wk =   0.0480000
        k(   36) = (   0.4242641   0.1414214  -0.0000000), wk =   0.0480000
        k(   37) = (  -0.2121320  -0.4949747   0.6363961), wk =   0.0960000
        k(   38) = (  -0.1414214  -0.4242641   0.5656854), wk =   0.0960000
        k(   39) = (  -0.0707107  -0.3535534   0.4949747), wk =   0.0960000
        k(   40) = (   0.0000000  -0.2828427   0.4242641), wk =   0.0480000
        k(   41) = (  -0.1414214  -0.5656854   0.7071068), wk =   0.0480000
        k(   42) = (  -0.0707107  -0.4949747   0.6363961), wk =   0.0960000
        k(   43) = (  -0.0000000  -0.4242641   0.5656854), wk =   0.0480000
        k(   44) = (  -0.7071068   0.1414214   0.0000000), wk =   0.0240000
        k(   45) = (  -0.1414214  -0.4242641   0.7071068), wk =   0.0480000
        k(   46) = (  -0.0707107  -0.3535534   0.6363961), wk =   0.0480000
        k(   47) = (  -0.7071068   0.2828427   0.0000000), wk =   0.0240000

     Dense  grid:     5029 G-vectors     FFT dimensions: (  24,  24,  24)

     Estimated max dynamical RAM per process >      26.02 MB

     Check: negative core charge=   -0.000646

     Initial potential from superposition of free atoms

     starting charge      27.9986, renormalised to      28.0000
     Starting wfcs are   18 randomized atomic wfcs

     total cpu time spent up to now is        1.0 secs

     Self-consistent Calculation

     iteration #  1     ecut=    25.00 Ry     beta= 0.50
     Davidson diagonalization with overlap
     ethr =  1.00E-02,  avg # of iterations =  1.8

     Threshold (ethr) on eigenvalues was too large:
     Diagonalizing with lowered threshold

     Davidson diagonalization with overlap
     ethr =  1.67E-04,  avg # of iterations =  2.0

     total cpu time spent up to now is        2.3 secs

     total energy              =    -425.92054600 Ry
     estimated scf accuracy    <       0.05080468 Ry

     iteration #  2     ecut=    25.00 Ry     beta= 0.50
     Davidson diagonalization with overlap
     ethr =  1.81E-04,  avg # of iterations =  1.0

     total cpu time spent up to now is        3.1 secs

     total energy              =    -425.92110298 Ry
     estimated scf accuracy    <       0.00685054 Ry

     iteration #  3     ecut=    25.00 Ry     beta= 0.50
     Davidson diagonalization with overlap
     ethr =  2.45E-05,  avg # of iterations =  2.0

     total cpu time spent up to now is        3.9 secs

     total energy              =    -425.92172192 Ry
     estimated scf accuracy    <       0.00011834 Ry

     iteration #  4     ecut=    25.00 Ry     beta= 0.50
     Davidson diagonalization with overlap
     ethr =  4.23E-07,  avg # of iterations =  3.9

     total cpu time spent up to now is        4.9 secs

     total energy              =    -425.92176675 Ry
     estimated scf accuracy    <       0.00000995 Ry

     iteration #  5     ecut=    25.00 Ry     beta= 0.50
     Davidson diagonalization with overlap
     ethr =  3.56E-08,  avg # of iterations =  2.4

     total cpu time spent up to now is        5.7 secs

     total energy              =    -425.92176811 Ry
     estimated scf accuracy    <       0.00000045 Ry

     iteration #  6     ecut=    25.00 Ry     beta= 0.50
     Davidson diagonalization with overlap
     ethr =  1.61E-09,  avg # of iterations =  3.2

     total cpu time spent up to now is        6.6 secs

     End of self-consistent calculation

          k = 0.0000 0.0000 0.0000 (   609 PWs)   bands (ev):

   -16.8201 -16.8201 -16.7620 -16.7620 -16.7620 -16.5356 -16.5356 -16.5356
   -16.4521 -16.4521  -4.4896   8.5552   8.5552   8.5552

          k = 0.0707 0.0707-0.0707 (   621 PWs)   bands (ev):

   -16.8205 -16.8205 -16.7886 -16.7886 -16.7858 -16.5379 -16.5379 -16.5315
   -16.5104 -16.5104  -4.3644   6.6667   8.3154   8.3154

          k = 0.1414 0.1414-0.1414 (   628 PWs)   bands (ev):

   -16.8414 -16.8414 -16.8191 -16.7660 -16.7660 -16.5699 -16.5699 -16.5237
   -16.5237 -16.5188  -3.9955   4.6768   7.8599   7.8599

          k = 0.2121 0.2121-0.2121 (   613 PWs)   bands (ev):

   -16.8426 -16.8426 -16.8138 -16.7011 -16.7011 -16.5712 -16.5712 -16.5219
   -16.4672 -16.4672  -3.4129   2.8663   7.4569   7.4569

          k = 0.2828 0.2828-0.2828 (   619 PWs)   bands (ev):

   -16.8683 -16.8683 -16.8079 -16.6974 -16.6974 -16.5930 -16.5930 -16.5246
   -16.4669 -16.4669  -2.7252   1.4207   7.1975   7.1975

          k =-0.3536-0.3536 0.3536 (   628 PWs)   bands (ev):

   -16.8806 -16.8806 -16.8324 -16.7114 -16.7114 -16.5836 -16.5836 -16.5634
   -16.4902 -16.4902  -2.3346   0.7743   7.1090   7.1090

          k = 0.1414 0.0000 0.0000 (   613 PWs)   bands (ev):

   -16.8108 -16.8022 -16.8022 -16.7785 -16.7321 -16.5557 -16.5176 -16.5176
   -16.5000 -16.4702  -4.3222   6.6292   7.9023   7.9023

          k = 0.2121 0.0707-0.0707 (   621 PWs)   bands (ev):

   -16.8440 -16.8339 -16.8036 -16.8029 -16.7190 -16.5758 -16.5297 -16.5185
   -16.4941 -16.4895  -4.0330   5.1271   7.4101   7.4421

          k = 0.2828 0.1414-0.1414 (   618 PWs)   bands (ev):

   -16.8469 -16.8442 -16.7999 -16.7516 -16.7113 -16.5793 -16.5592 -16.5168
   -16.4964 -16.4691  -3.5160   3.3816   6.8986   7.0365

          k = 0.3536 0.2121-0.2121 (   621 PWs)   bands (ev):

   -16.8731 -16.8665 -16.8045 -16.6993 -16.6926 -16.5954 -16.5938 -16.5307
   -16.4886 -16.4682  -2.8403   1.8424   6.4343   6.8483

          k =-0.2828-0.4243 0.4243 (   620 PWs)   bands (ev):

   -16.8883 -16.8667 -16.7913 -16.6851 -16.6807 -16.5925 -16.5849 -16.5626
   -16.4654 -16.4566  -2.2730   0.8713   6.1320   6.8627

          k =-0.2121-0.3536 0.3536 (   621 PWs)   bands (ev):

   -16.8763 -16.8757 -16.7950 -16.6890 -16.6861 -16.6050 -16.5854 -16.5588
   -16.4635 -16.4628  -2.4167   1.0983   6.0255   7.0711

          k =-0.1414-0.2828 0.2828 (   622 PWs)   bands (ev):

   -16.8661 -16.8600 -16.8088 -16.7336 -16.6906 -16.6064 -16.5721 -16.5310
   -16.4968 -16.4746  -3.0768   2.3214   6.1398   7.4434

          k =-0.0707-0.2121 0.2121 (   620 PWs)   bands (ev):

   -16.8413 -16.8394 -16.8173 -16.7425 -16.7095 -16.5891 -16.5546 -16.5139
   -16.5068 -16.4956  -3.7132   3.9424   6.5104   7.9121

          k = 0.0000-0.1414 0.1414 (   612 PWs)   bands (ev):

   -16.8205 -16.8101 -16.8087 -16.7718 -16.7234 -16.5621 -16.5331 -16.5026
   -16.4776 -16.4515  -4.1573   5.5785   7.2497   8.3093

          k = 0.2828 0.0000 0.0000 (   613 PWs)   bands (ev):

   -16.8353 -16.8353 -16.8013 -16.7826 -16.6950 -16.5934 -16.5679 -16.4677
   -16.4392 -16.4392  -3.8234   4.7080   6.8930   6.8930

          k = 0.3536 0.0707-0.0707 (   616 PWs)   bands (ev):

   -16.8577 -16.8544 -16.7954 -16.7613 -16.6769 -16.5991 -16.5481 -16.4861
   -16.4734 -16.4716  -3.3782   3.4975   6.2716   6.5022

          k = 0.4243 0.1414-0.1414 (   623 PWs)   bands (ev):

   -16.8754 -16.8752 -16.7852 -16.7408 -16.6789 -16.6203 -16.5836 -16.5300
   -16.4812 -16.4677  -2.7405   2.1345   5.5561   6.3111

          k =-0.2121-0.4950 0.4950 (   628 PWs)   bands (ev):

   -16.8915 -16.8855 -16.7818 -16.7136 -16.6673 -16.6352 -16.6164 -16.5607
   -16.4720 -16.4712  -2.0758   1.0367   5.0133   6.3419

          k =-0.1414-0.4243 0.4243 (   624 PWs)   bands (ev):

   -16.8843 -16.8766 -16.7717 -16.7012 -16.6784 -16.6199 -16.6006 -16.5410
   -16.4753 -16.4643  -1.9476   0.8563   4.7290   6.5879

          k =-0.0707-0.3536 0.3536 (   628 PWs)   bands (ev):

   -16.8904 -16.8740 -16.7875 -16.7261 -16.6846 -16.6217 -16.6142 -16.5637
   -16.4839 -16.4622  -2.5333   1.7585   4.7724   7.0127

          k = 0.0000-0.2828 0.2828 (   630 PWs)   bands (ev):

   -16.8774 -16.8529 -16.8094 -16.7640 -16.7094 -16.6259 -16.5768 -16.5528
   -16.5193 -16.4830  -3.2048   2.9592   5.3013   7.5255

          k = 0.4243 0.0000 0.0000 (   628 PWs)   bands (ev):

   -16.8886 -16.8886 -16.7815 -16.7805 -16.6558 -16.6416 -16.6073 -16.5040
   -16.4854 -16.4854  -3.0040   2.8531   6.0743   6.0743

          k = 0.4950 0.0707-0.0707 (   632 PWs)   bands (ev):

   -16.8938 -16.8924 -16.7882 -16.7571 -16.6831 -16.6458 -16.6143 -16.5330
   -16.4868 -16.4783  -2.4187   1.8564   5.4319   5.8433

          k =-0.1414-0.5657 0.5657 (   623 PWs)   bands (ev):

   -16.8855 -16.8744 -16.7486 -16.6908 -16.6793 -16.6478 -16.6043 -16.5516
   -16.4603 -16.4527  -1.7193   0.8903   4.6137   5.8403

          k =-0.0707-0.4950 0.4950 (   630 PWs)   bands (ev):

   -16.8917 -16.8795 -16.7470 -16.6944 -16.6748 -16.6630 -16.6556 -16.5490
   -16.4838 -16.4655  -1.3611   0.4707   4.0803   6.0644

          k =-0.0000-0.4243 0.4243 (   618 PWs)   bands (ev):

   -16.8741 -16.8532 -16.7518 -16.6695 -16.6510 -16.6365 -16.6095 -16.5455
   -16.4590 -16.4495  -1.8559   1.0428   4.0622   6.4842

          k = 0.5657 0.0000 0.0000 (   628 PWs)   bands (ev):

   -16.8902 -16.8902 -16.7655 -16.7112 -16.7111 -16.6435 -16.6166 -16.5449
   -16.4646 -16.4646  -1.8850   1.0985   5.5594   5.5594

          k =-0.0707-0.6364 0.6364 (   632 PWs)   bands (ev):

   -16.8919 -16.8844 -16.7462 -16.7147 -16.7057 -16.6426 -16.6072 -16.5790
   -16.5010 -16.4804  -1.1895   0.2690   5.0055   5.5023

          k = 0.0000-0.5657 0.5657 (   632 PWs)   bands (ev):

   -16.9015 -16.8801 -16.7276 -16.7067 -16.6760 -16.6661 -16.6437 -16.5555
   -16.5135 -16.4778  -0.7836  -0.1149   4.2832   5.6784

          k =-0.7071 0.0000 0.0000 (   636 PWs)   bands (ev):

   -16.8931 -16.8931 -16.7305 -16.7305 -16.6819 -16.6819 -16.5909 -16.5909
   -16.5236 -16.5236  -0.5010  -0.5010   5.3846   5.3846

          k = 0.2828 0.1414 0.0000 (   620 PWs)   bands (ev):

   -16.8504 -16.8444 -16.8123 -16.7711 -16.6895 -16.5945 -16.5602 -16.5169
   -16.4822 -16.4775  -3.6667   4.0720   6.2565   7.3593

          k = 0.3536 0.2121-0.0707 (   620 PWs)   bands (ev):

   -16.8702 -16.8529 -16.7985 -16.7286 -16.6808 -16.6016 -16.5792 -16.5397
   -16.4760 -16.4677  -3.0871   2.6915   5.5613   6.9686

          k =-0.2828-0.4243 0.5657 (   627 PWs)   bands (ev):

   -16.8911 -16.8780 -16.7861 -16.7203 -16.6763 -16.6137 -16.5945 -16.5842
   -16.4749 -16.4679  -2.3970   1.4051   5.2367   6.6164

          k =-0.2121-0.3536 0.4950 (   632 PWs)   bands (ev):

   -16.8941 -16.8884 -16.7858 -16.6996 -16.6957 -16.6230 -16.6138 -16.5897
   -16.4828 -16.4819  -1.9968   0.7917   5.1434   6.4817

          k = 0.4243 0.1414-0.0000 (   624 PWs)   bands (ev):

   -16.8830 -16.8801 -16.7874 -16.7531 -16.6529 -16.6365 -16.5930 -16.5192
   -16.4740 -16.4681  -2.8651   2.5391   5.4872   6.2216

          k =-0.2121-0.4950 0.6364 (   628 PWs)   bands (ev):

   -16.8868 -16.8815 -16.7680 -16.7184 -16.6667 -16.6526 -16.6151 -16.5604
   -16.4814 -16.4583  -2.1885   1.4683   4.8308   5.9020

          k =-0.1414-0.4243 0.5657 (   631 PWs)   bands (ev):

   -16.8910 -16.8813 -16.7590 -16.7014 -16.6797 -16.6592 -16.6167 -16.5940
   -16.4771 -16.4668  -1.6062   0.6844   4.4031   5.8452

          k =-0.0707-0.3536 0.4950 (   632 PWs)   bands (ev):

   -16.8952 -16.8805 -16.7617 -16.7084 -16.6669 -16.6511 -16.6462 -16.5864
   -16.4759 -16.4711  -1.7889   0.9213   4.2814   6.0830

          k = 0.0000-0.2828 0.4243 (   623 PWs)   bands (ev):

   -16.8888 -16.8595 -16.7724 -16.7186 -16.6682 -16.6202 -16.5910 -16.5704
   -16.4747 -16.4511  -2.4648   1.8302   4.6139   6.5270

          k =-0.1414-0.5657 0.7071 (   629 PWs)   bands (ev):

   -16.8894 -16.8834 -16.7635 -16.7100 -16.6920 -16.6299 -16.6235 -16.5561
   -16.4872 -16.4659  -1.7815   1.0051   5.0609   5.4127

          k =-0.0707-0.4950 0.6364 (   635 PWs)   bands (ev):

   -16.9006 -16.8842 -16.7525 -16.7071 -16.6907 -16.6568 -16.6419 -16.5976
   -16.4840 -16.4782  -1.0983   0.2465   4.4133   5.3167

          k =-0.0000-0.4243 0.5657 (   633 PWs)   bands (ev):

   -16.8864 -16.8831 -16.7465 -16.6912 -16.6792 -16.6567 -16.6508 -16.5810
   -16.4972 -16.4782  -1.1348   0.3021   4.0220   5.5895

          k =-0.7071 0.1414 0.0000 (   630 PWs)   bands (ev):

   -16.8943 -16.8943 -16.7287 -16.7287 -16.6714 -16.6714 -16.5937 -16.5937
   -16.4699 -16.4699  -0.4659  -0.4659   5.0262   5.0262

          k =-0.1414-0.4243 0.7071 (   635 PWs)   bands (ev):

   -16.8956 -16.8869 -16.7430 -16.7048 -16.6849 -16.6611 -16.6472 -16.6077
   -16.4862 -16.4773  -1.5019   0.7183   4.3425   5.3459

          k =-0.0707-0.3536 0.6364 (   630 PWs)   bands (ev):

   -16.8840 -16.8810 -16.7263 -16.6988 -16.6773 -16.6552 -16.6464 -16.6087
   -16.4698 -16.4580  -1.0351   0.2240   4.2004   5.1002

          k =-0.7071 0.2828 0.0000 (   632 PWs)   bands (ev):

   -16.8837 -16.8837 -16.7176 -16.7176 -16.6697 -16.6697 -16.6240 -16.6240
   -16.4741 -16.4741  -0.4064  -0.4064   4.5734   4.5734

     highest occupied level (ev):     8.5552

!    total energy              =    -425.92176835 Ry
     estimated scf accuracy    <       0.00000008 Ry

     The total energy is the sum of the following terms:
     one-electron contribution =    -274.80581909 Ry
     hartree contribution      =     162.78306626 Ry
     xc contribution           =    -114.35906197 Ry
     ewald contribution        =    -199.53995354 Ry

     convergence has been achieved in   6 iterations

     Forces acting on atoms (cartesian axes, Ry/au):

     atom    1 type  1   force =    -0.00000000    0.00000000   -0.00000000
     atom    2 type  1   force =     0.00000000   -0.00000000    0.00000000

     Total force =     0.000000     Total SCF correction =     0.000000


     Computing stress (Cartesian axis) and pressure

          total   stress  (Ry/bohr**3)                   (kbar)     P=     -763.26
  -0.00518855   0.00000000   0.00000000         -763.26        0.00        0.00
   0.00000000  -0.00518855   0.00000000            0.00     -763.26        0.00
   0.00000000   0.00000000  -0.00518855            0.00        0.00     -763.26

     Message from routine punch:
     Nothing written, as per user request (disk_io='none')

     init_run     :      0.81s CPU      0.83s WALL (       1 calls)
     electrons    :      5.53s CPU      5.63s WALL (       1 calls)
     forces       :      0.06s CPU      0.06s WALL (       1 calls)
     stress       :      0.43s CPU      0.43s WALL (       1 calls)

     Called by init_run:
     wfcinit      :      0.43s CPU      0.45s WALL (       1 calls)
     potinit      :      0.01s CPU      0.01s WALL (       1 calls)
     hinit0       :      0.33s CPU      0.33s WALL (       1 calls)

     Called by electrons:
     c_bands      :      4.54s CPU      4.62s WALL (       7 calls)
     sum_band     :      0.87s CPU      0.89s WALL (       7 calls)
     v_of_rho     :      0.01s CPU      0.01s WALL (       7 calls)
     newd         :      0.13s CPU      0.13s WALL (       7 calls)
     mix_rho      :      0.00s CPU      0.00s WALL (       7 calls)

     Called by c_bands:
     init_us_2    :      0.19s CPU      0.19s WALL (     799 calls)
     cegterg      :      4.10s CPU      4.17s WALL (     329 calls)

     Called by *egterg:
     cdiaghg      :      0.28s CPU      0.28s WALL (    1047 calls)
     h_psi        :      3.65s CPU      3.73s WALL (    1141 calls)
     s_psi        :      0.10s CPU      0.10s WALL (    1141 calls)
     g_psi        :      0.02s CPU      0.02s WALL (     765 calls)

     Called by h_psi:
     h_psi:calbec :      0.14s CPU      0.14s WALL (    1141 calls)
     vloc_psi     :      3.37s CPU      3.44s WALL (    1141 calls)
     add_vuspsi   :      0.11s CPU      0.11s WALL (    1141 calls)

     General routines
     calbec       :      0.26s CPU      0.27s WALL (    2269 calls)
     fft          :      0.16s CPU      0.17s WALL (      37 calls)
     ffts         :      0.00s CPU      0.00s WALL (       7 calls)
     fftw         :      3.44s CPU      3.52s WALL (   29202 calls)

     Parallel routines

     PWSCF        :      6.96s CPU      7.10s WALL


   This run was terminated on:   1:58:37   8Oct2025            

=------------------------------------------------------------------------------=
   JOB DONE.
=------------------------------------------------------------------------------=
