
     Program PWSCF v.7.4.1 starts on  8Oct2025 at  0:39:46 

     This program is part of the open-source Quantum ESPRESSO suite
     for quantum simulation of materials; please cite
         "P. Giannozzi et al., J. Phys.:Condens. Matter 21 395502 (2009);
         "P. Giannozzi et al., J. Phys.:Condens. Matter 29 465901 (2017);
         "P. Giannozzi et al., J. Chem. Phys. 152 154105 (2020);
          URL http://www.quantum-espresso.org", 
     in publications or presentations arising from this work. More details at
     http://www.quantum-espresso.org/quote

     Parallel version (MPI), running on     1 processors

     MPI processes distributed on     1 nodes
     226 MiB available memory on the printing compute node when the environment starts

     Waiting for input...
     Reading input from standard input
Warning: card &CELL ignored
Warning: card / ignored

     Current dimensions of program PWSCF are:
     Max number of different atomic species (ntypx) = 10
     Max number of k-points (npk) =  40000
     Max angular momentum in pseudopotentials (lmaxx) =  4
     Message from routine setup:
     using ibrav=0 with symmetry is DISCOURAGED, use correct ibrav instead

     Subspace diagonalization in iterative solution of the eigenvalue problem:
     a serial algorithm will be used


     G-vector sticks info
     --------------------
     sticks:   dense  smooth     PW     G-vecs:    dense   smooth      PW
     Sum         475     475    151                 6855     6855    1243

     Using Slab Decomposition



     bravais-lattice index     =            0
     lattice parameter (alat)  =       7.5604  a.u.
     unit-cell volume          =     305.5804 (a.u.)^3
     number of atoms/cell      =            2
     number of atomic types    =            1
     number of electrons       =        28.00
     number of Kohn-Sham states=           14
     kinetic-energy cutoff     =      30.0000  Ry
     charge density cutoff     =     120.0000  Ry
     scf convergence threshold =      1.0E-07
     mixing beta               =       0.5000
     number of iterations used =            8  plain     mixing
     Exchange-correlation=  SLA  PZ   NOGX NOGC
                           (   1   1   0   0   0   0   0)

     celldm(1)=   7.560435  celldm(2)=   0.000000  celldm(3)=   0.000000
     celldm(4)=   0.000000  celldm(5)=   0.000000  celldm(6)=   0.000000

     crystal axes: (cart. coord. in units of alat)
               a(1) = (   0.000000   0.707107   0.707107 )  
               a(2) = (   0.707107   0.000000   0.707107 )  
               a(3) = (   0.707107   0.707107   0.000000 )  

     reciprocal axes: (cart. coord. in units 2 pi/alat)
               b(1) = ( -0.707107  0.707107  0.707107 )  
               b(2) = (  0.707107 -0.707107  0.707107 )  
               b(3) = (  0.707107  0.707107 -0.707107 )  


     PseudoPot. # 1 for Ge read from file:
     /home/bond/Software/QE/qe-7.4.1/pseudo/ge_lda_v1.4.uspp.F.UPF
     MD5 check sum: bf9d52b59cc8a669818bb2b52e0c2ba0
     Pseudo is Ultrasoft + core correction, Zval = 14.0
     Generated by new atomic code, or converted to UPF format
     Using radial grid of  873 points,  6 beta functions with: 
                l(1) =   0
                l(2) =   0
                l(3) =   1
                l(4) =   1
                l(5) =   2
                l(6) =   2
     Q(r) pseudized with  8 coefficients,  rinner =    1.400   1.400   1.400
                                                       1.400   1.400

     atomic species   valence    mass     pseudopotential
     Ge               14.00    72.63000     Ge( 1.00)

      4 Sym. Ops. (no inversion) found



   Cartesian axes

     site n.     atom                  positions (alat units)
         1        Ge     tau(   1) = (   0.0000000   0.0000000   0.0707107  )
         2        Ge     tau(   2) = (   0.3535534   0.3535534   0.3535534  )

     number of k points=    64
                       cart. coord. in units 2pi/alat
        k(    1) = (   0.0000000   0.0000000   0.0000000), wk =   0.0058309
        k(    2) = (   0.1010153   0.1010153  -0.1010153), wk =   0.0233236
        k(    3) = (   0.2020305   0.2020305  -0.2020305), wk =   0.0233236
        k(    4) = (   0.3030458   0.3030458  -0.3030458), wk =   0.0233236
        k(    5) = (   0.2020305   0.0000000   0.0000000), wk =   0.0233236
        k(    6) = (   0.3030458   0.1010153  -0.1010153), wk =   0.0466472
        k(    7) = (   0.4040610   0.2020305  -0.2020305), wk =   0.0466472
        k(    8) = (  -0.2020305  -0.4040610   0.4040610), wk =   0.0466472
        k(    9) = (  -0.1010153  -0.3030458   0.3030458), wk =   0.0466472
        k(   10) = (  -0.0000000  -0.2020305   0.2020305), wk =   0.0466472
        k(   11) = (   0.4040610   0.0000000   0.0000000), wk =   0.0233236
        k(   12) = (   0.5050763   0.1010153  -0.1010153), wk =   0.0466472
        k(   13) = (  -0.1010153  -0.5050763   0.5050763), wk =   0.0466472
        k(   14) = (   0.0000000  -0.4040610   0.4040610), wk =   0.0466472
        k(   15) = (   0.6060915   0.0000000   0.0000000), wk =   0.0233236
        k(   16) = (   0.0000000  -0.6060915   0.6060915), wk =   0.0466472
        k(   17) = (   0.4040610   0.2020305   0.0000000), wk =   0.0233236
        k(   18) = (  -0.2020305  -0.4040610   0.6060915), wk =   0.0466472
        k(   19) = (  -0.1010153  -0.5050763   0.7071068), wk =   0.0233236
        k(   20) = (   0.0000000  -0.4040610   0.6060915), wk =   0.0466472
        k(   21) = (   0.1010153  -0.1010153  -0.1010153), wk =   0.0233236
        k(   22) = (   0.2020305  -0.2020305  -0.2020305), wk =   0.0233236
        k(   23) = (   0.3030458  -0.3030458  -0.3030458), wk =   0.0233236
        k(   24) = (   0.0000000   0.0000000   0.2020305), wk =   0.0116618
        k(   25) = (   0.1010153  -0.3030458  -0.1010153), wk =   0.0466472
        k(   26) = (  -0.1010153  -0.1010153   0.3030458), wk =   0.0233236
        k(   27) = (   0.1010153  -0.1010153  -0.3030458), wk =   0.0233236
        k(   28) = (   0.2020305  -0.4040610  -0.2020305), wk =   0.0466472
        k(   29) = (  -0.2020305  -0.2020305   0.4040610), wk =   0.0233236
        k(   30) = (   0.2020305  -0.2020305  -0.4040610), wk =   0.0233236
        k(   31) = (  -0.4040610   0.2020305   0.4040610), wk =   0.0466472
        k(   32) = (   0.4040610   0.4040610  -0.2020305), wk =   0.0233236
        k(   33) = (  -0.4040610   0.4040610   0.2020305), wk =   0.0233236
        k(   34) = (  -0.3030458   0.1010153   0.3030458), wk =   0.0466472
        k(   35) = (   0.3030458   0.3030458  -0.1010153), wk =   0.0233236
        k(   36) = (  -0.3030458   0.3030458   0.1010153), wk =   0.0233236
        k(   37) = (   0.2020305   0.2020305  -0.0000000), wk =   0.0116618
        k(   38) = (  -0.2020305   0.2020305   0.0000000), wk =   0.0116618
        k(   39) = (   0.0000000   0.0000000   0.4040610), wk =   0.0116618
        k(   40) = (   0.1010153  -0.5050763  -0.1010153), wk =   0.0466472
        k(   41) = (  -0.1010153  -0.1010153   0.5050763), wk =   0.0233236
        k(   42) = (   0.1010153  -0.1010153  -0.5050763), wk =   0.0233236
        k(   43) = (  -0.5050763   0.1010153   0.5050763), wk =   0.0466472
        k(   44) = (   0.5050763   0.5050763  -0.1010153), wk =   0.0233236
        k(   45) = (  -0.5050763   0.5050763   0.1010153), wk =   0.0233236
        k(   46) = (   0.4040610   0.4040610   0.0000000), wk =   0.0116618
        k(   47) = (  -0.4040610   0.4040610   0.0000000), wk =   0.0116618
        k(   48) = (   0.0000000   0.0000000   0.6060915), wk =   0.0116618
        k(   49) = (   0.6060915   0.6060915   0.0000000), wk =   0.0116618
        k(   50) = (  -0.6060915   0.6060915   0.0000000), wk =   0.0116618
        k(   51) = (   0.2020305  -0.4040610   0.0000000), wk =   0.0233236
        k(   52) = (   0.0000000  -0.2020305   0.4040610), wk =   0.0466472
        k(   53) = (  -0.4040610   0.0000000   0.2020305), wk =   0.0466472
        k(   54) = (  -0.4040610   0.2020305   0.6060915), wk =   0.0466472
        k(   55) = (   0.6060915   0.4040610  -0.2020305), wk =   0.0466472
        k(   56) = (  -0.6060915   0.4040610   0.2020305), wk =   0.0466472
        k(   57) = (   0.2020305   0.6060915  -0.4040610), wk =   0.0466472
        k(   58) = (   0.2020305  -0.6060915   0.4040610), wk =   0.0466472
        k(   59) = (  -0.5050763   0.1010153   0.7071068), wk =   0.0233236
        k(   60) = (   0.7071068   0.5050763  -0.1010153), wk =   0.0466472
        k(   61) = (   0.1010153   0.7071068  -0.5050763), wk =   0.0466472
        k(   62) = (   0.6060915   0.4040610   0.0000000), wk =   0.0233236
        k(   63) = (  -0.6060915   0.4040610   0.0000000), wk =   0.0233236
        k(   64) = (   0.0000000   0.6060915  -0.4040610), wk =   0.0466472

     Dense  grid:     6855 G-vectors     FFT dimensions: (  27,  27,  27)

     Estimated max dynamical RAM per process >      38.35 MB

     Check: negative core charge=   -0.000124

     Initial potential from superposition of free atoms

     starting charge      27.9986, renormalised to      28.0000
     Starting wfcs are   18 randomized atomic wfcs

     total cpu time spent up to now is        1.3 secs

     Self-consistent Calculation

     iteration #  1     ecut=    30.00 Ry     beta= 0.50
     Davidson diagonalization with overlap
     ethr =  1.00E-02,  avg # of iterations =  1.9

     Threshold (ethr) on eigenvalues was too large:
     Diagonalizing with lowered threshold

     Davidson diagonalization with overlap
     ethr =  1.25E-04,  avg # of iterations =  2.0

     total cpu time spent up to now is        4.4 secs

     total energy              =    -426.10623523 Ry
     estimated scf accuracy    <       0.03657316 Ry

     iteration #  2     ecut=    30.00 Ry     beta= 0.50
     Davidson diagonalization with overlap
     ethr =  1.31E-04,  avg # of iterations =  1.0

     total cpu time spent up to now is        5.8 secs

     total energy              =    -426.10513336 Ry
     estimated scf accuracy    <       0.00607044 Ry

     iteration #  3     ecut=    30.00 Ry     beta= 0.50
     Davidson diagonalization with overlap
     ethr =  2.17E-05,  avg # of iterations =  2.1

     total cpu time spent up to now is        7.4 secs

     total energy              =    -426.10566031 Ry
     estimated scf accuracy    <       0.00007842 Ry

     iteration #  4     ecut=    30.00 Ry     beta= 0.50
     Davidson diagonalization with overlap
     ethr =  2.80E-07,  avg # of iterations =  3.9

     total cpu time spent up to now is        9.5 secs

     total energy              =    -426.10568540 Ry
     estimated scf accuracy    <       0.00000810 Ry

     iteration #  5     ecut=    30.00 Ry     beta= 0.50
     Davidson diagonalization with overlap
     ethr =  2.89E-08,  avg # of iterations =  2.3

     total cpu time spent up to now is       11.2 secs

     total energy              =    -426.10568683 Ry
     estimated scf accuracy    <       0.00000023 Ry

     iteration #  6     ecut=    30.00 Ry     beta= 0.50
     Davidson diagonalization with overlap
     ethr =  8.24E-10,  avg # of iterations =  4.0

     total cpu time spent up to now is       13.5 secs

     End of self-consistent calculation

          k = 0.0000 0.0000 0.0000 (   869 PWs)   bands (ev):

   -16.9833 -16.9812 -16.9159 -16.8817 -16.8565 -16.7042 -16.6786 -16.6764
   -16.6486 -16.6461  -4.7527   6.8382   7.9477   8.3659

          k = 0.1010 0.1010-0.1010 (   857 PWs)   bands (ev):

   -17.0045 -16.9948 -16.9115 -16.8533 -16.8435 -16.7133 -16.7046 -16.6403
   -16.6396 -16.6267  -4.4944   4.7389   7.4782   8.5536

          k = 0.2020 0.2020-0.2020 (   845 PWs)   bands (ev):

   -17.0382 -17.0202 -16.9056 -16.8295 -16.8190 -16.7229 -16.7201 -16.6349
   -16.6175 -16.5898  -3.7377   2.1594   6.7668   7.8461

          k = 0.3030 0.3030-0.3030 (   853 PWs)   bands (ev):

   -17.0562 -17.0442 -16.8955 -16.8354 -16.8161 -16.7265 -16.7224 -16.6399
   -16.6040 -16.5696  -2.6428   0.0938   6.3613   7.4955

          k = 0.2020 0.0000 0.0000 (   869 PWs)   bands (ev):

   -17.0080 -16.9978 -16.9137 -16.8532 -16.8368 -16.7319 -16.7064 -16.6469
   -16.6352 -16.6347  -4.4256   4.8844   7.1946   7.3958

          k = 0.3030 0.1010-0.1010 (   854 PWs)   bands (ev):

   -17.0349 -17.0269 -16.9124 -16.8244 -16.8103 -16.7501 -16.7191 -16.6399
   -16.6080 -16.5976  -3.8187   2.6714   6.4135   7.0750

          k = 0.4041 0.2020-0.2020 (   837 PWs)   bands (ev):

   -17.0532 -17.0405 -16.8974 -16.8183 -16.8060 -16.7356 -16.7208 -16.6428
   -16.5897 -16.5657  -2.7787   0.5834   5.7796   6.5010

          k =-0.2020-0.4041 0.4041 (   843 PWs)   bands (ev):

   -17.0614 -17.0354 -16.8843 -16.8388 -16.8068 -16.7267 -16.7185 -16.6543
   -16.5965 -16.5625  -2.1970  -0.2129   5.3550   6.5609

          k =-0.1010-0.3030 0.3030 (   845 PWs)   bands (ev):

   -17.0446 -17.0125 -16.8900 -16.8392 -16.8133 -16.7321 -16.7133 -16.6546
   -16.6147 -16.5816  -3.2342   1.5137   5.3407   7.1123

          k =-0.0000-0.2020 0.2020 (   849 PWs)   bands (ev):

   -17.0096 -16.9883 -16.9019 -16.8431 -16.8400 -16.7173 -16.7095 -16.6487
   -16.6380 -16.6187  -4.1159   3.8648   5.8355   7.9344

          k = 0.4041 0.0000 0.0000 (   849 PWs)   bands (ev):

   -17.0368 -17.0229 -16.9055 -16.8115 -16.7847 -16.7824 -16.7212 -16.6488
   -16.5998 -16.5978  -3.4601   2.4323   5.9338   6.0808

          k = 0.5051 0.1010-0.1010 (   843 PWs)   bands (ev):

   -17.0534 -17.0428 -16.8949 -16.8124 -16.7928 -16.7490 -16.7307 -16.6593
   -16.5813 -16.5662  -2.5277   0.7218   5.2405   5.7213

          k =-0.1010-0.5051 0.5051 (   849 PWs)   bands (ev):

   -17.0660 -17.0325 -16.8763 -16.8388 -16.7890 -16.7417 -16.7220 -16.6797
   -16.5905 -16.5576  -1.5800  -0.4074   4.2223   5.8385

          k = 0.0000-0.4041 0.4041 (   849 PWs)   bands (ev):

   -17.0534 -17.0082 -16.8673 -16.8452 -16.7961 -16.7472 -16.7113 -16.6892
   -16.6082 -16.5747  -2.4734   0.8996   3.8472   6.4537

          k = 0.6061 0.0000 0.0000 (   830 PWs)   bands (ev):

   -17.0464 -17.0417 -16.8751 -16.8303 -16.7745 -16.7447 -16.7250 -16.6751
   -16.5661 -16.5650  -1.9110   0.1096   5.2794   5.3294

          k = 0.0000-0.6061 0.6061 (   846 PWs)   bands (ev):

   -17.0612 -17.0355 -16.8610 -16.8537 -16.7643 -16.7576 -16.7051 -16.7001
   -16.5821 -16.5612  -1.1750  -0.6543   4.4573   5.3688

          k = 0.4041 0.2020 0.0000 (   844 PWs)   bands (ev):

   -17.0611 -17.0345 -16.9100 -16.8099 -16.7861 -16.7676 -16.7211 -16.6390
   -16.5977 -16.5640  -3.0270   1.2087   5.0511   6.8897

          k =-0.2020-0.4041 0.6061 (   853 PWs)   bands (ev):

   -17.0741 -17.0205 -16.9001 -16.8203 -16.8056 -16.7363 -16.7308 -16.6536
   -16.6105 -16.5531  -1.8939  -0.2120   4.2481   6.2000

          k =-0.1010-0.5051 0.7071 (   842 PWs)   bands (ev):

   -17.0662 -17.0232 -16.8871 -16.8308 -16.7845 -16.7412 -16.7232 -16.6738
   -16.5919 -16.5508  -1.4275  -0.4758   4.4208   5.2687

          k = 0.0000-0.4041 0.6061 (   841 PWs)   bands (ev):

   -17.0539 -16.9945 -16.8629 -16.8510 -16.7778 -16.7597 -16.6984 -16.6962
   -16.6119 -16.5677  -1.6096   0.0196   3.7741   5.0578

          k = 0.1010-0.1010-0.1010 (   857 PWs)   bands (ev):

   -16.9823 -16.9792 -16.9046 -16.8750 -16.8433 -16.7084 -16.6834 -16.6765
   -16.6417 -16.6402  -4.5256   5.8077   6.6072   8.3150

          k = 0.2020-0.2020-0.2020 (   845 PWs)   bands (ev):

   -16.9878 -16.9722 -16.8928 -16.8642 -16.8294 -16.7225 -16.6928 -16.6688
   -16.6394 -16.6364  -3.8975   3.2948   6.1884   7.8309

          k = 0.3030-0.3030-0.3030 (   853 PWs)   bands (ev):

   -16.9911 -16.9678 -16.8920 -16.8653 -16.8155 -16.7421 -16.7062 -16.6656
   -16.6438 -16.6336  -3.1618   1.5574   5.9156   7.5534

          k = 0.0000 0.0000 0.2020 (   869 PWs)   bands (ev):

   -16.9861 -16.9832 -16.9070 -16.8703 -16.8612 -16.7010 -16.6954 -16.6671
   -16.6530 -16.6422  -4.4315   5.4643   6.2104   7.6009

          k = 0.1010-0.3030-0.1010 (   854 PWs)   bands (ev):

   -17.0115 -16.9895 -16.9032 -16.8430 -16.8158 -16.7474 -16.7097 -16.6541
   -16.6342 -16.6208  -3.9252   3.7630   5.5634   6.7977

          k =-0.1010-0.1010 0.3030 (   854 PWs)   bands (ev):

   -17.0158 -16.9823 -16.8948 -16.8597 -16.8368 -16.7291 -16.6948 -16.6517
   -16.6486 -16.6145  -3.8645   3.1796   5.8062   6.9464

          k = 0.1010-0.1010-0.3030 (   854 PWs)   bands (ev):

   -16.9910 -16.9748 -16.8926 -16.8658 -16.8486 -16.7192 -16.6886 -16.6636
   -16.6499 -16.6364  -3.9101   3.6456   5.7524   6.6701

          k = 0.2020-0.4041-0.2020 (   837 PWs)   bands (ev):

   -17.0142 -16.9791 -16.8852 -16.8283 -16.8056 -16.7502 -16.7199 -16.6655
   -16.6234 -16.6090  -3.1633   1.9910   4.7792   6.6150

          k =-0.2020-0.2020 0.4041 (   837 PWs)   bands (ev):

   -17.0487 -16.9976 -16.8843 -16.8502 -16.8091 -16.7334 -16.7025 -16.6414
   -16.6338 -16.5723  -2.8621   0.8768   5.1982   6.7526

          k = 0.2020-0.2020-0.4041 (   837 PWs)   bands (ev):

   -16.9907 -16.9629 -16.8817 -16.8606 -16.8269 -16.7261 -16.6998 -16.6642
   -16.6372 -16.6317  -3.1490   1.8766   5.5436   5.8646

          k =-0.4041 0.2020 0.4041 (   843 PWs)   bands (ev):

   -17.0171 -16.9790 -16.8798 -16.8299 -16.8161 -16.7393 -16.7295 -16.6748
   -16.6207 -16.6098  -2.8021   1.2936   4.4850   6.8143

          k = 0.4041 0.4041-0.2020 (   843 PWs)   bands (ev):

   -17.0689 -17.0227 -16.8952 -16.8297 -16.8102 -16.7251 -16.7248 -16.6382
   -16.6157 -16.5542  -2.1176  -0.3152   4.9485   7.0341

          k =-0.4041 0.4041 0.2020 (   843 PWs)   bands (ev):

   -16.9927 -16.9650 -16.8806 -16.8607 -16.8073 -16.7429 -16.7106 -16.6756
   -16.6345 -16.6284  -2.8544   1.3942   5.3938   5.6695

          k =-0.3030 0.1010 0.3030 (   845 PWs)   bands (ev):

   -17.0147 -16.9807 -16.8880 -16.8377 -16.8295 -16.7253 -16.7204 -16.6660
   -16.6275 -16.6120  -3.3937   2.3625   4.6934   7.3306

          k = 0.3030 0.3030-0.1010 (   845 PWs)   bands (ev):

   -17.0615 -17.0330 -16.9115 -16.8140 -16.7978 -16.7562 -16.7216 -16.6309
   -16.6029 -16.5622  -3.1135   1.0812   5.2577   7.7390

          k =-0.3030 0.3030 0.1010 (   845 PWs)   bands (ev):

   -16.9921 -16.9695 -16.8864 -16.8649 -16.7967 -16.7540 -16.6993 -16.6821
   -16.6310 -16.6289  -3.4742   2.7557   5.3293   6.0712

          k = 0.2020 0.2020-0.0000 (   849 PWs)   bands (ev):

   -17.0302 -17.0278 -16.9170 -16.8275 -16.8117 -16.7430 -16.7151 -16.6324
   -16.6068 -16.5981  -4.0436   3.0260   6.3066   8.6641

          k =-0.2020 0.2020 0.0000 (   849 PWs)   bands (ev):

   -16.9885 -16.9716 -16.8969 -16.8724 -16.8173 -16.7338 -16.6839 -16.6821
   -16.6392 -16.6326  -4.1744   4.8627   5.9273   6.5224

          k = 0.0000 0.0000 0.4041 (   849 PWs)   bands (ev):

   -16.9935 -16.9693 -16.8778 -16.8689 -16.8500 -16.7355 -16.6688 -16.6682
   -16.6453 -16.6399  -3.4982   2.9113   5.2324   6.1973

          k = 0.1010-0.5051-0.1010 (   843 PWs)   bands (ev):

   -17.0443 -17.0128 -16.8871 -16.8107 -16.7932 -16.7582 -16.7309 -16.6674
   -16.6001 -16.5828  -2.7537   1.4977   4.5660   5.7550

          k =-0.1010-0.1010 0.5051 (   843 PWs)   bands (ev):

   -17.0215 -16.9641 -16.8778 -16.8568 -16.8202 -16.7596 -16.6887 -16.6508
   -16.6493 -16.6016  -2.6813   1.3594   4.3487   5.9062

          k = 0.1010-0.1010-0.5051 (   843 PWs)   bands (ev):

   -16.9947 -16.9605 -16.8665 -16.8640 -16.8425 -16.7420 -16.6778 -16.6767
   -16.6378 -16.6307  -2.7815   1.6527   4.9801   5.2363

          k =-0.5051 0.1010 0.5051 (   849 PWs)   bands (ev):

   -17.0522 -17.0087 -16.8687 -16.8360 -16.7812 -16.7562 -16.7261 -16.6909
   -16.6035 -16.5753  -2.1323   0.6794   3.6424   5.9214

          k = 0.5051 0.5051-0.1010 (   849 PWs)   bands (ev):

   -17.0623 -16.9827 -16.8896 -16.8359 -16.8013 -16.7552 -16.7140 -16.6493
   -16.6415 -16.5646  -1.5897  -0.2812   3.6589   6.1256

          k =-0.5051 0.5051 0.1010 (   849 PWs)   bands (ev):

   -16.9979 -16.9611 -16.8675 -16.8605 -16.8320 -16.7345 -16.7125 -16.6852
   -16.6283 -16.6258  -2.3170   1.0973   4.2436   5.1025

          k = 0.4041 0.4041 0.0000 (   849 PWs)   bands (ev):

   -17.0752 -17.0145 -16.9058 -16.8117 -16.8089 -16.7418 -16.7251 -16.6353
   -16.6264 -16.5507  -2.0424  -0.0356   3.9050   6.8160

          k =-0.4041 0.4041 0.0000 (   849 PWs)   bands (ev):

   -16.9954 -16.9662 -16.8736 -16.8586 -16.7999 -16.7543 -16.7131 -16.6906
   -16.6300 -16.6271  -2.7770   1.9327   3.9852   5.5484

          k = 0.0000 0.0000 0.6061 (   830 PWs)   bands (ev):

   -16.9905 -16.9483 -16.8673 -16.8550 -16.8480 -16.7426 -16.6874 -16.6514
   -16.6447 -16.6176  -2.1502   0.7274   4.6464   5.4716

          k = 0.6061 0.6061 0.0000 (   846 PWs)   bands (ev):

   -17.0275 -16.9561 -16.8757 -16.8435 -16.8184 -16.7664 -16.6989 -16.6571
   -16.6472 -16.5977  -1.5670   0.0036   3.8424   5.5495

          k =-0.6061 0.6061 0.0000 (   846 PWs)   bands (ev):

   -16.9981 -16.9526 -16.8642 -16.8552 -16.8540 -16.7363 -16.6896 -16.6851
   -16.6369 -16.6195  -1.8401   0.4185   4.6933   4.7316

          k = 0.2020-0.4041 0.0000 (   844 PWs)   bands (ev):

   -17.0150 -16.9824 -16.8922 -16.8320 -16.7811 -16.7804 -16.7176 -16.6621
   -16.6233 -16.6154  -3.3402   2.8282   4.8336   5.4723

          k = 0.0000-0.2020 0.4041 (   844 PWs)   bands (ev):

   -17.0183 -16.9743 -16.8779 -16.8582 -16.8252 -16.7414 -16.6915 -16.6677
   -16.6366 -16.6088  -3.2271   2.1818   4.6326   6.2977

          k =-0.4041 0.0000 0.2020 (   844 PWs)   bands (ev):

   -17.0429 -17.0181 -16.8940 -16.8177 -16.8015 -16.7518 -16.7218 -16.6599
   -16.6030 -16.5852  -3.1943   1.9083   4.8292   6.4649

          k =-0.4041 0.2020 0.6061 (   853 PWs)   bands (ev):

   -17.0223 -16.9761 -16.8792 -16.8274 -16.8152 -16.7473 -16.7375 -16.6779
   -16.6237 -16.6091  -2.6098   1.5091   4.1839   5.2035

          k = 0.6061 0.4041-0.2020 (   853 PWs)   bands (ev):

   -17.0578 -16.9953 -16.8799 -16.8502 -16.8007 -16.7494 -16.7068 -16.6713
   -16.6264 -16.5710  -2.1719   0.3328   4.1144   5.9860

          k =-0.6061 0.4041 0.2020 (   853 PWs)   bands (ev):

   -17.0225 -16.9752 -16.8705 -16.8463 -16.8205 -16.7476 -16.7132 -16.6847
   -16.6270 -16.6074  -2.5216   1.2306   4.0723   5.5514

          k = 0.2020 0.6061-0.4041 (   853 PWs)   bands (ev):

   -17.0580 -17.0469 -16.8772 -16.8347 -16.7944 -16.7410 -16.7250 -16.6778
   -16.5818 -16.5689  -2.1088   0.1140   4.7402   5.5434

          k = 0.2020-0.6061 0.4041 (   853 PWs)   bands (ev):

   -17.0504 -17.0149 -16.8728 -16.8254 -16.7890 -16.7592 -16.7287 -16.6893
   -16.6018 -16.5791  -2.4484   1.0387   3.7433   6.1242

          k =-0.5051 0.1010 0.7071 (   842 PWs)   bands (ev):

   -17.0500 -17.0014 -16.8686 -16.8371 -16.7782 -16.7524 -16.7280 -16.6806
   -16.6043 -16.5768  -2.0425   0.6163   4.5526   4.5572

          k = 0.7071 0.5051-0.1010 (   842 PWs)   bands (ev):

   -17.0233 -16.9621 -16.8663 -16.8521 -16.8159 -16.7619 -16.6900 -16.6792
   -16.6328 -16.5970  -1.9902   0.5737   4.0398   5.0696

          k = 0.1010 0.7071-0.5051 (   842 PWs)   bands (ev):

   -17.0540 -17.0451 -16.8687 -16.8327 -16.7733 -16.7492 -16.7257 -16.6878
   -16.5710 -16.5658  -1.7566   0.0150   4.4807   5.0250

          k = 0.6061 0.4041 0.0000 (   841 PWs)   bands (ev):

   -17.0601 -16.9833 -16.8828 -16.8350 -16.7891 -16.7580 -16.7082 -16.6707
   -16.6232 -16.5626  -1.0804  -0.6606   3.5641   5.3753

          k =-0.6061 0.4041 0.0000 (   841 PWs)   bands (ev):

   -17.0219 -16.9674 -16.8596 -16.8453 -16.8182 -16.7501 -16.7108 -16.6846
   -16.6223 -16.5988  -1.9749   0.7385   4.1535   4.3403

          k = 0.0000 0.6061-0.4041 (   841 PWs)   bands (ev):

   -17.0600 -17.0413 -16.8550 -16.8425 -16.7686 -16.7525 -16.7141 -16.7022
   -16.5743 -16.5604  -1.4260  -0.3019   3.9308   5.0803

     highest occupied level (ev):     8.6641

!    total energy              =    -426.10568695 Ry
     estimated scf accuracy    <       0.00000003 Ry

     The total energy is the sum of the following terms:
     one-electron contribution =    -280.25198439 Ry
     hartree contribution      =     165.40118109 Ry
     xc contribution           =    -114.50566557 Ry
     ewald contribution        =    -196.74921808 Ry

     convergence has been achieved in   6 iterations

     Forces acting on atoms (cartesian axes, Ry/au):

     atom    1 type  1   force =     0.00000000    0.00000000   -0.11306652
     atom    2 type  1   force =     0.00000000    0.00000000    0.11306652

     Total force =     0.159900     Total SCF correction =     0.001495


     Computing stress (Cartesian axis) and pressure

          total   stress  (Ry/bohr**3)                   (kbar)     P=     -136.75
  -0.00085717   0.00052566   0.00000000         -126.09       77.33        0.00
   0.00052566  -0.00085717  -0.00000000           77.33     -126.09       -0.00
  -0.00000000  -0.00000000  -0.00107442           -0.00       -0.00     -158.05

     Message from routine punch:
     Nothing written, as per user request (disk_io='none')

     init_run     :      1.16s CPU      1.19s WALL (       1 calls)
     electrons    :     12.06s CPU     12.17s WALL (       1 calls)
     forces       :      0.11s CPU      0.11s WALL (       1 calls)
     stress       :      0.70s CPU      0.71s WALL (       1 calls)

     Called by init_run:
     wfcinit      :      0.84s CPU      0.87s WALL (       1 calls)
     potinit      :      0.02s CPU      0.02s WALL (       1 calls)
     hinit0       :      0.26s CPU      0.26s WALL (       1 calls)

     Called by electrons:
     c_bands      :     10.01s CPU     10.10s WALL (       7 calls)
     sum_band     :      1.90s CPU      1.91s WALL (       7 calls)
     v_of_rho     :      0.01s CPU      0.01s WALL (       7 calls)
     newd         :      0.16s CPU      0.17s WALL (       7 calls)
     mix_rho      :      0.01s CPU      0.01s WALL (       7 calls)

     Called by c_bands:
     init_us_2    :      0.33s CPU      0.34s WALL (    1088 calls)
     cegterg      :      9.27s CPU      9.34s WALL (     448 calls)

     Called by *egterg:
     cdiaghg      :      0.39s CPU      0.40s WALL (    1493 calls)
     h_psi        :      8.63s CPU      8.72s WALL (    1621 calls)
     s_psi        :      0.18s CPU      0.18s WALL (    1621 calls)
     g_psi        :      0.04s CPU      0.04s WALL (    1109 calls)

     Called by h_psi:
     h_psi:calbec :      0.25s CPU      0.25s WALL (    1621 calls)
     vloc_psi     :      8.13s CPU      8.22s WALL (    1621 calls)
     add_vuspsi   :      0.19s CPU      0.19s WALL (    1621 calls)

     General routines
     calbec       :      0.48s CPU      0.49s WALL (    3157 calls)
     fft          :      0.09s CPU      0.09s WALL (      37 calls)
     ffts         :      0.00s CPU      0.00s WALL (       7 calls)
     fftw         :      8.67s CPU      8.76s WALL (   40330 calls)

     Parallel routines

     PWSCF        :     14.18s CPU     14.33s WALL


   This run was terminated on:   0:40: 0   8Oct2025            

=------------------------------------------------------------------------------=
   JOB DONE.
=------------------------------------------------------------------------------=
