LAMMPS (22 Jul 2025 - Update 1)
Reading data file ...
  orthogonal box = (0 0 0) to (8.6584976 8.6584976 20.367447)
  1 by 1 by 1 MPI processor grid
  reading atoms ...
  90 atoms
  read_data CPU = 0.001 seconds
Reading eam/alloy potential file /home/bond/Software/LAMMPS/lammps-22Jul2025/potentials/Al_zhou.eam.alloy with DATE: 2007-10-12
WARNING: No fixes with time integration, atoms won't move
For more information see https://docs.lammps.org/err0028 (../verlet.cpp:60)
Neighbor list info ...
  update: every = 1 steps, delay = 0 steps, check = yes
  max neighbors/atom: 2000, page size: 100000
  master list distance cutoff = 12.1025
  ghost atom cutoff = 12.1025
  binsize = 6.05125, bins = 2 2 4
  1 neighbor lists, perpetual/occasional/extra = 1 0 0
  (1) pair eam/alloy, perpetual
      attributes: half, newton on
      pair build: half/bin/atomonly/newton
      stencil: half/bin/3d
      bin: standard
Setting up Verlet run ...
  Unit style    : metal
  Current step  : 0
  Time step     : 0.001
Per MPI rank memory allocation (min/avg/max) = 3.358 | 3.358 | 3.358 Mbytes
   Step         PotEng           Lx             Ly             Lz           Press           Pxx            Pyy            Pzz      
         0  -314.0072       8.6584976      8.6584976      20.367447     -15639.574     -18878.183     -18878.183     -9162.3556    
Loop time of 2.421e-06 on 1 procs for 0 steps with 90 atoms

123.9% CPU use with 1 MPI tasks x no OpenMP threads

MPI task timing breakdown:
Section |  min time  |  avg time  |  max time  |%varavg| %total
---------------------------------------------------------------
Pair    | 0          | 0          | 0          |   0.0 |  0.00
Neigh   | 0          | 0          | 0          |   0.0 |  0.00
Comm    | 0          | 0          | 0          |   0.0 |  0.00
Output  | 0          | 0          | 0          |   0.0 |  0.00
Modify  | 0          | 0          | 0          |   0.0 |  0.00
Other   |            | 2.421e-06  |            |       |100.00

Nlocal:             90 ave          90 max          90 min
Histogram: 1 0 0 0 0 0 0 0 0 0
Nghost:           1235 ave        1235 max        1235 min
Histogram: 1 0 0 0 0 0 0 0 0 0
Neighs:          15030 ave       15030 max       15030 min
Histogram: 1 0 0 0 0 0 0 0 0 0

Total # of neighbors = 15030
Ave neighs/atom = 167
Neighbor list builds = 0
Dangerous builds = 0
Setting up cg style minimization ...
  Unit style    : metal
  Current step  : 0
Per MPI rank memory allocation (min/avg/max) = 4.483 | 4.483 | 4.483 Mbytes
   Step         PotEng           Lx             Ly             Lz           Press           Pxx            Pyy            Pzz      
         0  -314.0072       8.6584976      8.6584976      20.367447     -15639.574     -18878.183     -18878.183     -9162.3556    
        10  -314.10685      8.6584976      8.6584976      20.367447     -7940.8354     -11915.566     -11915.566      8.6264819    
Loop time of 0.0146455 on 1 procs for 10 steps with 90 atoms

96.3% CPU use with 1 MPI tasks x no OpenMP threads

Minimization stats:
  Stopping criterion = energy tolerance
  Energy initial, next-to-last, final = 
     -314.007204541259  -314.106851880067  -314.106851890349
  Force two-norm initial, final = 0.82410697 0.00024634713
  Force max component initial, final = 0.15944169 4.1374207e-05
  Final line search alpha, max atom move = 1 4.1374207e-05
  Iterations, force evaluations = 10 19

MPI task timing breakdown:
Section |  min time  |  avg time  |  max time  |%varavg| %total
---------------------------------------------------------------
Pair    | 0.014364   | 0.014364   | 0.014364   |   0.0 | 98.07
Neigh   | 0          | 0          | 0          |   0.0 |  0.00
Comm    | 0.0001254  | 0.0001254  | 0.0001254  |   0.0 |  0.86
Output  | 0          | 0          | 0          |   0.0 |  0.00
Modify  | 0          | 0          | 0          |   0.0 |  0.00
Other   |            | 0.0001566  |            |       |  1.07

Nlocal:             90 ave          90 max          90 min
Histogram: 1 0 0 0 0 0 0 0 0 0
Nghost:           1235 ave        1235 max        1235 min
Histogram: 1 0 0 0 0 0 0 0 0 0
Neighs:          15030 ave       15030 max       15030 min
Histogram: 1 0 0 0 0 0 0 0 0 0

Total # of neighbors = 15030
Ave neighs/atom = 167
Neighbor list builds = 0
Dangerous builds = 0
Total energy (eV) = -314.106851890349
Number of atoms = 90
Lattice constant (Angstoms) = 8.65849758507688
Total wall time: 0:00:00
