LAMMPS (22 Jul 2025 - Update 1)
# ---------- 1. Initialize simulation ---------------------
units metal
atom_style atomic
dimension  3
boundary   p p f
read_data /home/bond/Work/Lab1/Surface/EAM/relax/3_4_111/lammps.data
Reading data file ...
  orthogonal box = (0 0 0) to (8.6584976 7.4984789 12.713089)
  1 by 1 by 1 MPI processor grid
  reading atoms ...
  27 atoms
  read_data CPU = 0.001 seconds

# ---------- 2. Specify interatomic potential ---------------------
pair_style eam/alloy
pair_coeff * * /home/bond/Software/LAMMPS/lammps-22Jul2025/potentials/Al_zhou.eam.alloy  Al
Reading eam/alloy potential file /home/bond/Software/LAMMPS/lammps-22Jul2025/potentials/Al_zhou.eam.alloy with DATE: 2007-10-12

# pair_style lj/cut 4.5
# pair_coeff 1 1 0.392 2.620 4.5

# ---------- 3. Run single point calculation  ---------------------
thermo_style custom step pe lx ly lz press pxx pyy pzz
run 0
WARNING: No fixes with time integration, atoms won't move
For more information see https://docs.lammps.org/err0028 (../verlet.cpp:60)
Neighbor list info ...
  update: every = 1 steps, delay = 0 steps, check = yes
  max neighbors/atom: 2000, page size: 100000
  master list distance cutoff = 12.1025
  ghost atom cutoff = 12.1025
  binsize = 6.05125, bins = 2 2 3
  1 neighbor lists, perpetual/occasional/extra = 1 0 0
  (1) pair eam/alloy, perpetual
      attributes: half, newton on
      pair build: half/bin/atomonly/newton
      stencil: half/bin/3d
      bin: standard
Per MPI rank memory allocation (min/avg/max) = 3.319 | 3.319 | 3.319 Mbytes
   Step         PotEng           Lx             Ly             Lz           Press           Pxx            Pyy            Pzz      
         0  -88.330963      8.6584976      7.4984789      12.713089     -10978.346     -24756.838     -3165.1566     -5013.0428    
Loop time of 2.629e-06 on 1 procs for 0 steps with 27 atoms

152.1% CPU use with 1 MPI tasks x no OpenMP threads

MPI task timing breakdown:
Section |  min time  |  avg time  |  max time  |%varavg| %total
---------------------------------------------------------------
Pair    | 0          | 0          | 0          |   0.0 |  0.00
Neigh   | 0          | 0          | 0          |   0.0 |  0.00
Comm    | 0          | 0          | 0          |   0.0 |  0.00
Output  | 0          | 0          | 0          |   0.0 |  0.00
Modify  | 0          | 0          | 0          |   0.0 |  0.00
Other   |            | 2.629e-06  |            |       |100.00

Nlocal:             27 ave          27 max          27 min
Histogram: 1 0 0 0 0 0 0 0 0 0
Nghost:            412 ave         412 max         412 min
Histogram: 1 0 0 0 0 0 0 0 0 0
Neighs:           2442 ave        2442 max        2442 min
Histogram: 1 0 0 0 0 0 0 0 0 0

Total # of neighbors = 2442
Ave neighs/atom = 90.444444
Neighbor list builds = 0
Dangerous builds = 0
# -- include optimization of the unit cell parameter
#fix 1 all box/relax x 0.0 y 0.0 couple xy vmax 0.001

# -- enable optimization of atomic positions (and the cell)
min_style cg
minimize 1e-10 1e-10 1000 10000
Per MPI rank memory allocation (min/avg/max) = 4.444 | 4.444 | 4.444 Mbytes
   Step         PotEng           Lx             Ly             Lz           Press           Pxx            Pyy            Pzz      
         0  -88.330963      8.6584976      7.4984789      12.713089     -10978.346     -24756.838     -3165.1566     -5013.0428    
        20  -89.034723      8.6584976      7.4984789      12.713089     -5280.6778     -15803.452     -38.0111       -0.5699352    
Loop time of 0.00825537 on 1 procs for 20 steps with 27 atoms

92.2% CPU use with 1 MPI tasks x no OpenMP threads

Minimization stats:
  Stopping criterion = energy tolerance
  Energy initial, next-to-last, final = 
     -88.3309627360304  -89.0347233181069   -89.034723321989
  Force two-norm initial, final = 2.7330626 5.7130316e-05
  Force max component initial, final = 0.65819482 1.7550384e-05
  Final line search alpha, max atom move = 1 1.7550384e-05
  Iterations, force evaluations = 20 39

MPI task timing breakdown:
Section |  min time  |  avg time  |  max time  |%varavg| %total
---------------------------------------------------------------
Pair    | 0.0079793  | 0.0079793  | 0.0079793  |   0.0 | 96.66
Neigh   | 0          | 0          | 0          |   0.0 |  0.00
Comm    | 0.00011612 | 0.00011612 | 0.00011612 |   0.0 |  1.41
Output  | 0          | 0          | 0          |   0.0 |  0.00
Modify  | 0          | 0          | 0          |   0.0 |  0.00
Other   |            | 0.0001599  |            |       |  1.94

Nlocal:             27 ave          27 max          27 min
Histogram: 1 0 0 0 0 0 0 0 0 0
Nghost:            412 ave         412 max         412 min
Histogram: 1 0 0 0 0 0 0 0 0 0
Neighs:           2442 ave        2442 max        2442 min
Histogram: 1 0 0 0 0 0 0 0 0 0

Total # of neighbors = 2442
Ave neighs/atom = 90.444444
Neighbor list builds = 0
Dangerous builds = 0

# ---- 4. Define and print useful variables -------------
variable natoms equal "count(all)"
variable totenergy equal "pe"
variable length equal "lx"

print "Total energy (eV) = ${totenergy}"
Total energy (eV) = -89.034723321989
print "Number of atoms = ${natoms}"
Number of atoms = 27
print "Lattice constant (Angstoms) = ${length}"
Lattice constant (Angstoms) = 8.65849758507688
Total wall time: 0:00:00
