
     Program PWSCF v.7.4.1 starts on  9Oct2025 at 13: 1:57 

     This program is part of the open-source Quantum ESPRESSO suite
     for quantum simulation of materials; please cite
         "P. Giannozzi et al., J. Phys.:Condens. Matter 21 395502 (2009);
         "P. Giannozzi et al., J. Phys.:Condens. Matter 29 465901 (2017);
         "P. Giannozzi et al., J. Chem. Phys. 152 154105 (2020);
          URL http://www.quantum-espresso.org", 
     in publications or presentations arising from this work. More details at
     http://www.quantum-espresso.org/quote

     Parallel version (MPI), running on     1 processors

     MPI processes distributed on     1 nodes
     217 MiB available memory on the printing compute node when the environment starts

     Waiting for input...
     Reading input from standard input
Warning: card &CELL ignored
Warning: card / ignored

     Current dimensions of program PWSCF are:
     Max number of different atomic species (ntypx) = 10
     Max number of k-points (npk) =  40000
     Max angular momentum in pseudopotentials (lmaxx) =  4
     Message from routine setup:
     using ibrav=0 with symmetry is DISCOURAGED, use correct ibrav instead

     Subspace diagonalization in iterative solution of the eigenvalue problem:
     a serial algorithm will be used


     G-vector sticks info
     --------------------
     sticks:   dense  smooth     PW     G-vecs:    dense   smooth      PW
     Sum         397     397    121                 5161     5161     941

     Using Slab Decomposition



     bravais-lattice index     =            0
     lattice parameter (alat)  =       7.5872  a.u.
     unit-cell volume          =     308.8323 (a.u.)^3
     number of atoms/cell      =            2
     number of atomic types    =            1
     number of electrons       =        28.00
     number of Kohn-Sham states=           14
     kinetic-energy cutoff     =      25.0000  Ry
     charge density cutoff     =     100.0000  Ry
     scf convergence threshold =      1.0E-07
     mixing beta               =       0.5000
     number of iterations used =            8  plain     mixing
     Exchange-correlation=  SLA  PZ   NOGX NOGC
                           (   1   1   0   0   0   0   0)

     celldm(1)=   7.587160  celldm(2)=   0.000000  celldm(3)=   0.000000
     celldm(4)=   0.000000  celldm(5)=   0.000000  celldm(6)=   0.000000

     crystal axes: (cart. coord. in units of alat)
               a(1) = (   0.000000   0.707107   0.707107 )  
               a(2) = (   0.707107   0.000000   0.707107 )  
               a(3) = (   0.707107   0.707107   0.000000 )  

     reciprocal axes: (cart. coord. in units 2 pi/alat)
               b(1) = ( -0.707107  0.707107  0.707107 )  
               b(2) = (  0.707107 -0.707107  0.707107 )  
               b(3) = (  0.707107  0.707107 -0.707107 )  


     PseudoPot. # 1 for Ge read from file:
     /home/bond/Software/QE/qe-7.4.1/pseudo/ge_lda_v1.4.uspp.F.UPF
     MD5 check sum: bf9d52b59cc8a669818bb2b52e0c2ba0
     Pseudo is Ultrasoft + core correction, Zval = 14.0
     Generated by new atomic code, or converted to UPF format
     Using radial grid of  873 points,  6 beta functions with: 
                l(1) =   0
                l(2) =   0
                l(3) =   1
                l(4) =   1
                l(5) =   2
                l(6) =   2
     Q(r) pseudized with  8 coefficients,  rinner =    1.400   1.400   1.400
                                                       1.400   1.400

     atomic species   valence    mass     pseudopotential
     Ge               14.00    72.63000     Ge( 1.00)

     48 Sym. Ops., with inversion, found (24 have fractional translation)



   Cartesian axes

     site n.     atom                  positions (alat units)
         1        Ge     tau(   1) = (   0.0000000   0.0000000   0.0000000  )
         2        Ge     tau(   2) = (   0.3535534   0.3535534   0.3535534  )

     number of k points=     8
                       cart. coord. in units 2pi/alat
        k(    1) = (   0.0000000   0.0000000   0.0000000), wk =   0.0312500
        k(    2) = (   0.1767767   0.1767767  -0.1767767), wk =   0.2500000
        k(    3) = (  -0.3535534  -0.3535534   0.3535534), wk =   0.1250000
        k(    4) = (   0.3535534   0.0000000   0.0000000), wk =   0.1875000
        k(    5) = (  -0.1767767  -0.5303301   0.5303301), wk =   0.7500000
        k(    6) = (   0.0000000  -0.3535534   0.3535534), wk =   0.3750000
        k(    7) = (  -0.7071068   0.0000000   0.0000000), wk =   0.0937500
        k(    8) = (  -0.7071068   0.3535534   0.0000000), wk =   0.1875000

     Dense  grid:     5161 G-vectors     FFT dimensions: (  32,  32,  32)

     Estimated max dynamical RAM per process >      22.64 MB

     Check: negative core charge=   -0.000679

     Initial potential from superposition of free atoms

     starting charge      27.9986, renormalised to      28.0000
     Starting wfcs are   18 randomized atomic wfcs

     total cpu time spent up to now is        0.6 secs

     Self-consistent Calculation

     iteration #  1     ecut=    25.00 Ry     beta= 0.50
     Davidson diagonalization with overlap
     ethr =  1.00E-02,  avg # of iterations =  1.9

     Threshold (ethr) on eigenvalues was too large:
     Diagonalizing with lowered threshold

     Davidson diagonalization with overlap
     ethr =  1.75E-04,  avg # of iterations =  1.9

     total cpu time spent up to now is        0.8 secs

     total energy              =    -425.89673442 Ry
     estimated scf accuracy    <       0.05313754 Ry

     iteration #  2     ecut=    25.00 Ry     beta= 0.50
     Davidson diagonalization with overlap
     ethr =  1.90E-04,  avg # of iterations =  1.0

     total cpu time spent up to now is        1.0 secs

     total energy              =    -425.89707220 Ry
     estimated scf accuracy    <       0.00746453 Ry

     iteration #  3     ecut=    25.00 Ry     beta= 0.50
     Davidson diagonalization with overlap
     ethr =  2.67E-05,  avg # of iterations =  2.0

     total cpu time spent up to now is        1.1 secs

     total energy              =    -425.89769575 Ry
     estimated scf accuracy    <       0.00012780 Ry

     iteration #  4     ecut=    25.00 Ry     beta= 0.50
     Davidson diagonalization with overlap
     ethr =  4.56E-07,  avg # of iterations =  3.4

     total cpu time spent up to now is        1.3 secs

     total energy              =    -425.89772599 Ry
     estimated scf accuracy    <       0.00001005 Ry

     iteration #  5     ecut=    25.00 Ry     beta= 0.50
     Davidson diagonalization with overlap
     ethr =  3.59E-08,  avg # of iterations =  2.9

     total cpu time spent up to now is        1.4 secs

     total energy              =    -425.89772747 Ry
     estimated scf accuracy    <       0.00000023 Ry

     iteration #  6     ecut=    25.00 Ry     beta= 0.50
     Davidson diagonalization with overlap
     ethr =  8.27E-10,  avg # of iterations =  4.6

     total cpu time spent up to now is        1.6 secs

     End of self-consistent calculation

          k = 0.0000 0.0000 0.0000 (   645 PWs)   bands (ev):

   -17.2347 -17.2347 -17.2347 -17.2144 -17.2144 -17.0286 -17.0286 -16.9386
   -16.9386 -16.9386  -4.6795   7.7486   8.0542   8.0542

          k = 0.1768 0.1768-0.1768 (   640 PWs)   bands (ev):

   -17.2596 -17.2596 -17.2308 -17.1546 -17.1546 -17.0095 -17.0095 -16.9595
   -16.9595 -16.9283  -3.9470   3.2850   7.1830   7.1830

          k =-0.3536-0.3536 0.3536 (   652 PWs)   bands (ev):

   -17.3054 -17.3054 -17.2444 -17.1091 -17.1091 -17.0848 -17.0643 -17.0643
   -16.9039 -16.9039  -2.6239   0.4560   6.6678   6.6678

          k = 0.3536 0.0000 0.0000 (   649 PWs)   bands (ev):

   -17.2905 -17.2905 -17.2244 -17.2238 -17.0861 -17.0696 -17.0213 -16.9616
   -16.9616 -16.9444  -3.6821   3.2533   6.0425   6.0425

          k =-0.1768-0.5303 0.5303 (   655 PWs)   bands (ev):

   -17.3101 -17.3020 -17.2059 -17.1443 -17.1158 -17.0923 -17.0880 -17.0258
   -16.9361 -16.9338  -2.2158   0.6410   4.3519   5.6825

          k = 0.0000-0.3536 0.3536 (   656 PWs)   bands (ev):

   -17.3058 -17.3013 -17.2105 -17.1640 -17.1065 -17.0863 -17.0714 -17.0119
   -16.9833 -16.9347  -2.8208   1.4838   4.2177   6.5685

          k =-0.7071 0.0000 0.0000 (   636 PWs)   bands (ev):

   -17.2831 -17.2831 -17.1112 -17.1112 -17.0856 -17.0856 -16.9927 -16.9927
   -16.9449 -16.9449  -0.8473  -0.8473   5.0188   5.0188

          k =-0.7071 0.3536 0.0000 (   648 PWs)   bands (ev):

   -17.2933 -17.2933 -17.1467 -17.1467 -17.0972 -17.0972 -17.0446 -17.0446
   -16.9266 -16.9266  -0.7540  -0.7540   4.1863   4.1863

     highest occupied level (ev):     8.0542

!    total energy              =    -425.89772767 Ry
     estimated scf accuracy    <       0.00000005 Ry

     The total energy is the sum of the following terms:
     one-electron contribution =    -279.42538289 Ry
     hartree contribution      =     164.64398572 Ry
     xc contribution           =    -114.31750347 Ry
     ewald contribution        =    -196.79882702 Ry

     convergence has been achieved in   6 iterations

     Forces acting on atoms (cartesian axes, Ry/au):

     atom    1 type  1   force =     0.00000000    0.00000000   -0.00000000
     atom    2 type  1   force =     0.00000000   -0.00000000    0.00000000

     Total force =     0.000000     Total SCF correction =     0.000000


     Computing stress (Cartesian axis) and pressure

          total   stress  (Ry/bohr**3)                   (kbar)     P=     -757.60
  -0.00515003  -0.00000000  -0.00000000         -757.60       -0.00       -0.00
  -0.00000000  -0.00515003  -0.00000000           -0.00     -757.60       -0.00
  -0.00000000  -0.00000000  -0.00515003           -0.00       -0.00     -757.60

     Message from routine punch:
     Nothing written, as per user request (disk_io='none')

     init_run     :      0.49s CPU      0.49s WALL (       1 calls)
     electrons    :      1.03s CPU      1.05s WALL (       1 calls)
     forces       :      0.03s CPU      0.03s WALL (       1 calls)
     stress       :      0.18s CPU      0.18s WALL (       1 calls)

     Called by init_run:
     wfcinit      :      0.18s CPU      0.18s WALL (       1 calls)
     potinit      :      0.01s CPU      0.01s WALL (       1 calls)
     hinit0       :      0.28s CPU      0.28s WALL (       1 calls)

     Called by electrons:
     c_bands      :      0.73s CPU      0.74s WALL (       7 calls)
     sum_band     :      0.21s CPU      0.23s WALL (       7 calls)
     v_of_rho     :      0.01s CPU      0.01s WALL (       7 calls)
     newd         :      0.09s CPU      0.09s WALL (       7 calls)
     mix_rho      :      0.00s CPU      0.00s WALL (       7 calls)

     Called by c_bands:
     init_us_2    :      0.02s CPU      0.02s WALL (     136 calls)
     cegterg      :      0.68s CPU      0.68s WALL (      56 calls)

     Called by *egterg:
     cdiaghg      :      0.03s CPU      0.03s WALL (     189 calls)
     h_psi        :      0.76s CPU      0.76s WALL (     205 calls)
     s_psi        :      0.01s CPU      0.01s WALL (     205 calls)
     g_psi        :      0.00s CPU      0.00s WALL (     141 calls)

     Called by h_psi:
     h_psi:calbec :      0.01s CPU      0.01s WALL (     205 calls)
     vloc_psi     :      0.73s CPU      0.74s WALL (     205 calls)
     add_vuspsi   :      0.01s CPU      0.01s WALL (     205 calls)

     General routines
     calbec       :      0.03s CPU      0.03s WALL (     397 calls)
     fft          :      0.16s CPU      0.16s WALL (      37 calls)
     ffts         :      0.00s CPU      0.00s WALL (       7 calls)
     fftw         :      0.72s CPU      0.73s WALL (    5062 calls)

     Parallel routines

     PWSCF        :      1.81s CPU      1.84s WALL


   This run was terminated on:  13: 1:59   9Oct2025            

=------------------------------------------------------------------------------=
   JOB DONE.
=------------------------------------------------------------------------------=
