
     Program PWSCF v.7.4.1 starts on 21Oct2025 at 18: 4:18 

     This program is part of the open-source Quantum ESPRESSO suite
     for quantum simulation of materials; please cite
         "P. Giannozzi et al., J. Phys.:Condens. Matter 21 395502 (2009);
         "P. Giannozzi et al., J. Phys.:Condens. Matter 29 465901 (2017);
         "P. Giannozzi et al., J. Chem. Phys. 152 154105 (2020);
          URL http://www.quantum-espresso.org", 
     in publications or presentations arising from this work. More details at
     http://www.quantum-espresso.org/quote

     Parallel version (MPI), running on     2 processors

     MPI processes distributed on     1 nodes
     213 MiB available memory on the printing compute node when the environment starts

     Waiting for input...
     Reading input from standard input

     Current dimensions of program PWSCF are:
     Max number of different atomic species (ntypx) = 10
     Max number of k-points (npk) =  40000
     Max angular momentum in pseudopotentials (lmaxx) =  4
     Message from routine setup:
     using ibrav=0 with symmetry is DISCOURAGED, use correct ibrav instead

     R & G space division:  proc/nbgrp/npool/nimage =       2
     Subspace diagonalization in iterative solution of the eigenvalue problem:
     a serial algorithm will be used


     Parallelization info
     --------------------
     sticks:   dense  smooth     PW     G-vecs:    dense   smooth      PW
     Min         318     156     54                 5208     1847     373
     Max         319     157     55                 5209     1848     376
     Sum         637     313    109                10417     3695     749

     Using Slab Decomposition



     bravais-lattice index     =            0
     lattice parameter (alat)  =       5.3450  a.u.
     unit-cell volume          =     107.9734 (a.u.)^3
     number of atoms/cell      =            1
     number of atomic types    =            1
     number of electrons       =        11.00
     number of Kohn-Sham states=           10
     kinetic-energy cutoff     =      40.0000  Ry
     charge density cutoff     =     320.0000  Ry
     scf convergence threshold =      1.0E-07
     mixing beta               =       0.7000
     number of iterations used =            8  plain     mixing
     energy convergence thresh.=      1.0E-04
     force convergence thresh. =      1.0E-03
     press convergence thresh. =      5.0E-01
     Exchange-correlation=  SLA  PZ   NOGX NOGC
                           (   1   1   0   0   0   0   0)
     nstep                     =           50


     celldm(1)=   5.344953  celldm(2)=   0.000000  celldm(3)=   0.000000
     celldm(4)=   0.000000  celldm(5)=   0.000000  celldm(6)=   0.000000

     crystal axes: (cart. coord. in units of alat)
               a(1) = (   0.000000   0.707107   0.707107 )  
               a(2) = (   0.707107   0.000000   0.707107 )  
               a(3) = (   0.707107   0.707107   0.000000 )  

     reciprocal axes: (cart. coord. in units 2 pi/alat)
               b(1) = ( -0.707107  0.707107  0.707107 )  
               b(2) = (  0.707107 -0.707107  0.707107 )  
               b(3) = (  0.707107  0.707107 -0.707107 )  


     PseudoPot. # 1 for Au read from file:
     /home/bond/Software/QE/qe-7.4.1/pseudo/Au.pz-d-rrkjus.UPF
     MD5 check sum: 424ffd4ac9c90487cbadcd287136c95b
     Pseudo is Ultrasoft, Zval = 11.0
     Generated by new atomic code, or converted to UPF format
     Using radial grid of 1279 points,  3 beta functions with: 
                l(1) =   2
                l(2) =   2
                l(3) =   1
     Q(r) pseudized with 0 coefficients 


     atomic species   valence    mass     pseudopotential
     Au               11.00   196.96657     Au( 1.00)

     48 Sym. Ops., with inversion, found



   Cartesian axes

     site n.     atom                  positions (alat units)
         1        Au     tau(   1) = (   0.0000000   0.0000000   0.0000000  )

     number of k points=   110  Methfessel-Paxton smearing, width (Ry)=  0.0200

     Number of k-points >= 100: set verbosity='high' to print them.

     Dense  grid:    10417 G-vectors     FFT dimensions: (  32,  32,  32)

     Smooth grid:     3695 G-vectors     FFT dimensions: (  24,  24,  24)

     Estimated max dynamical RAM per process >      17.64 MB

     Estimated total dynamical RAM >      35.28 MB

     Initial potential from superposition of free atoms

     starting charge      10.9999, renormalised to      11.0000
     Starting wfcs are    9 randomized atomic wfcs +    1 random wfcs

     total cpu time spent up to now is        1.5 secs

     Self-consistent Calculation

     iteration #  1     ecut=    40.00 Ry     beta= 0.70
     Davidson diagonalization with overlap
     ethr =  1.00E-02,  avg # of iterations =  5.3

     Threshold (ethr) on eigenvalues was too large:
     Diagonalizing with lowered threshold

     Davidson diagonalization with overlap
     ethr =  6.88E-04,  avg # of iterations =  1.0

     total cpu time spent up to now is        3.6 secs

     total energy              =     -66.84586654 Ry
     estimated scf accuracy    <       0.07662915 Ry

     iteration #  2     ecut=    40.00 Ry     beta= 0.70
     Davidson diagonalization with overlap
     ethr =  6.97E-04,  avg # of iterations =  2.0

     total cpu time spent up to now is        4.6 secs

     total energy              =     -66.86850976 Ry
     estimated scf accuracy    <       0.02382367 Ry

     iteration #  3     ecut=    40.00 Ry     beta= 0.70
     Davidson diagonalization with overlap
     ethr =  2.17E-04,  avg # of iterations =  1.7

     total cpu time spent up to now is        5.4 secs

     total energy              =     -66.87310956 Ry
     estimated scf accuracy    <       0.00002864 Ry

     iteration #  4     ecut=    40.00 Ry     beta= 0.70
     Davidson diagonalization with overlap
     ethr =  2.60E-07,  avg # of iterations =  3.1

     total cpu time spent up to now is        6.5 secs

     total energy              =     -66.87312624 Ry
     estimated scf accuracy    <       0.00000275 Ry

     iteration #  5     ecut=    40.00 Ry     beta= 0.70
     Davidson diagonalization with overlap
     ethr =  2.50E-08,  avg # of iterations =  1.0

     total cpu time spent up to now is        7.3 secs

     End of self-consistent calculation

     Number of k-points >= 100: set verbosity='high' to print the bands.

     the Fermi energy is    17.0676 ev

!    total energy              =     -66.87312641 Ry
     estimated scf accuracy    <       0.00000004 Ry
     smearing contrib. (-TS)   =       0.00004448 Ry
     internal energy E=F+TS    =     -66.87317089 Ry

     The total energy is F=E-TS. E is the sum of the following terms:
     one-electron contribution =      10.18323675 Ry
     hartree contribution      =       6.83036197 Ry
     xc contribution           =     -10.49408274 Ry
     ewald contribution        =     -73.39268687 Ry

     convergence has been achieved in   5 iterations


     Computing stress (Cartesian axis) and pressure

          total   stress  (Ry/bohr**3)                   (kbar)     P=       73.35
   0.00049865   0.00000000   0.00000000           73.35        0.00        0.00
   0.00000000   0.00049865   0.00000000            0.00       73.35        0.00
   0.00000000   0.00000000   0.00049865            0.00        0.00       73.35


     BFGS Geometry Optimization
     Energy error            =      2.0E-03 Ry
     Gradient error          =      0.0E+00 Ry/Bohr
     Cell gradient error     =      7.3E+01 kbar

     number of scf cycles    =   1
     number of bfgs steps    =   0

     enthalpy           new  =     -66.8731264108 Ry

     new trust radius        =       0.0259072510 bohr
     new conv_thr            =       0.0000001000 Ry

     new unit-cell volume =    112.06194 a.u.^3 (    16.60587 Ang^3 )
     density =     19.69609 g/cm^3

CELL_PARAMETERS (angstrom)
   0.000000000   2.024932340   2.024932340
   2.024932340   0.000000000   2.024932340
   2.024932340   2.024932340  -0.000000000

ATOMIC_POSITIONS (angstrom)
Au               0.0000000000        0.0000000000        0.0000000000    0   0   0


     Message from routine punch:
     Nothing written, as per user request (disk_io='none')
     NEW-OLD atomic charge density approx. for the potential
     New effective cutoffs (rho, wfc):  310.06   39.02

     total cpu time spent up to now is        7.6 secs

     Self-consistent Calculation

     iteration #  1     ecut=    40.00 Ry     beta= 0.70
     Davidson diagonalization with overlap
     ethr =  1.00E-06,  avg # of iterations =  3.6

     Threshold (ethr) on eigenvalues was too large:
     Diagonalizing with lowered threshold

     Davidson diagonalization with overlap
     ethr =  1.18E-08,  avg # of iterations =  1.1

     total cpu time spent up to now is       10.2 secs

     total energy              =     -66.87407437 Ry
     estimated scf accuracy    <       0.00000126 Ry

     iteration #  2     ecut=    40.00 Ry     beta= 0.70
     Davidson diagonalization with overlap
     ethr =  1.15E-08,  avg # of iterations =  2.0

     total cpu time spent up to now is       11.2 secs

     total energy              =     -66.87407467 Ry
     estimated scf accuracy    <       0.00000037 Ry

     iteration #  3     ecut=    40.00 Ry     beta= 0.70
     Davidson diagonalization with overlap
     ethr =  3.35E-09,  avg # of iterations =  1.7

     total cpu time spent up to now is       12.1 secs

     End of self-consistent calculation

     Number of k-points >= 100: set verbosity='high' to print the bands.

     the Fermi energy is    16.1426 ev

!    total energy              =     -66.87407475 Ry
     estimated scf accuracy    <       0.00000001 Ry
     smearing contrib. (-TS)   =       0.00006187 Ry
     internal energy E=F+TS    =     -66.87413662 Ry

     The total energy is F=E-TS. E is the sum of the following terms:
     one-electron contribution =       8.92300585 Ry
     hartree contribution      =       7.15256894 Ry
     xc contribution           =     -10.46068506 Ry
     ewald contribution        =     -72.48902635 Ry

     convergence has been achieved in   3 iterations


     Computing stress (Cartesian axis) and pressure

          total   stress  (Ry/bohr**3)                   (kbar)     P=       -4.07
  -0.00002764   0.00000000   0.00000000           -4.07        0.00        0.00
   0.00000000  -0.00002764   0.00000000            0.00       -4.07        0.00
   0.00000000   0.00000000  -0.00002764            0.00        0.00       -4.07

     Energy error            =      9.5E-04 Ry
     Gradient error          =      0.0E+00 Ry/Bohr
     Cell gradient error     =      4.1E+00 kbar

     number of scf cycles    =   2
     number of bfgs steps    =   1

     enthalpy           old  =     -66.8731264108 Ry
     enthalpy           new  =     -66.8740747454 Ry

     CASE: enthalpy          _new < enthalpy          _old

     new trust radius        =       0.0014014916 bohr
     new conv_thr            =       0.0000000010 Ry

     new unit-cell volume =    111.83955 a.u.^3 (    16.57291 Ang^3 )
     density =     19.73526 g/cm^3

CELL_PARAMETERS (angstrom)
   0.000000000   2.023591917   2.023591917
   2.023591917   0.000000000   2.023591917
   2.023591917   2.023591917  -0.000000000

ATOMIC_POSITIONS (angstrom)
Au               0.0000000000        0.0000000000        0.0000000000    0   0   0


     Message from routine punch:
     Nothing written, as per user request (disk_io='none')
     NEW-OLD atomic charge density approx. for the potential
     New effective cutoffs (rho, wfc):  310.47   39.07

     total cpu time spent up to now is       12.4 secs

     Self-consistent Calculation

     iteration #  1     ecut=    40.00 Ry     beta= 0.70
     Davidson diagonalization with overlap
     ethr =  1.00E-06,  avg # of iterations =  2.0

     Threshold (ethr) on eigenvalues was too large:
     Diagonalizing with lowered threshold

     Davidson diagonalization with overlap
     ethr =  1.17E-10,  avg # of iterations =  2.0

     total cpu time spent up to now is       14.3 secs

     total energy              =     -66.87407754 Ry
     estimated scf accuracy    <       0.00000001 Ry

     iteration #  2     ecut=    40.00 Ry     beta= 0.70
     Davidson diagonalization with overlap
     ethr =  9.18E-11,  avg # of iterations =  2.0

     total cpu time spent up to now is       15.2 secs

     total energy              =     -66.87407754 Ry
     estimated scf accuracy    <          3.4E-09 Ry

     iteration #  3     ecut=    40.00 Ry     beta= 0.70
     Davidson diagonalization with overlap
     ethr =  3.09E-11,  avg # of iterations =  1.6

     total cpu time spent up to now is       16.1 secs

     End of self-consistent calculation

     Number of k-points >= 100: set verbosity='high' to print the bands.

     the Fermi energy is    16.1910 ev

!    total energy              =     -66.87407754 Ry
     estimated scf accuracy    <          3.9E-11 Ry
     smearing contrib. (-TS)   =       0.00006135 Ry
     internal energy E=F+TS    =     -66.87413890 Ry

     The total energy is F=E-TS. E is the sum of the following terms:
     one-electron contribution =       8.99006643 Ry
     hartree contribution      =       7.13528112 Ry
     xc contribution           =     -10.46244351 Ry
     ewald contribution        =     -72.53704294 Ry

     convergence has been achieved in   3 iterations


     Computing stress (Cartesian axis) and pressure

          total   stress  (Ry/bohr**3)                   (kbar)     P=        0.06
   0.00000041   0.00000000   0.00000000            0.06        0.00        0.00
   0.00000000   0.00000041   0.00000000            0.00        0.06        0.00
   0.00000000   0.00000000   0.00000041            0.00        0.00        0.06

     Energy error            =      2.8E-06 Ry
     Gradient error          =      0.0E+00 Ry/Bohr
     Cell gradient error     =      6.1E-02 kbar

     bfgs converged in   3 scf cycles and   2 bfgs steps
     (criteria: energy <  1.0E-04 Ry, force <  1.0E-03 Ry/Bohr, cell <  5.0E-01 kbar)

     End of BFGS Geometry Optimization

     Final enthalpy           =     -66.8740775428 Ry

     File /home/bond/Work/Lab4/Problem3/Au_nk_10/pwscf.bfgs deleted, as requested
Begin final coordinates
     new unit-cell volume =    111.83955 a.u.^3 (    16.57291 Ang^3 )
     density =     19.73526 g/cm^3

CELL_PARAMETERS (angstrom)
   0.000000000   2.023591917   2.023591917
   2.023591917   0.000000000   2.023591917
   2.023591917   2.023591917  -0.000000000

ATOMIC_POSITIONS (angstrom)
Au               0.0000000000        0.0000000000        0.0000000000    0   0   0
End final coordinates


     Message from routine punch:
     Nothing written, as per user request (disk_io='none')

     Final scf calculation at the relaxed structure.
     The G-vectors are recalculated for the final unit cell
     Results may differ from those at the preceding step.

     Parallelization info
     --------------------
     sticks:   dense  smooth     PW     G-vecs:    dense   smooth      PW
     Min         324     156     60                 5423     1917     434
     Max         325     157     61                 5426     1922     435
     Sum         649     313    121                10849     3839     869

     Using Slab Decomposition



     bravais-lattice index     =            0
     lattice parameter (alat)  =       5.3450  a.u.
     unit-cell volume          =     111.8395 (a.u.)^3
     number of atoms/cell      =            1
     number of atomic types    =            1
     number of electrons       =        11.00
     number of Kohn-Sham states=           10
     kinetic-energy cutoff     =      40.0000  Ry
     charge density cutoff     =     320.0000  Ry
     scf convergence threshold =      1.0E-09
     mixing beta               =       0.7000
     number of iterations used =            8  plain     mixing
     press convergence thresh. =      5.0E-01
     Exchange-correlation=  SLA  PZ   NOGX NOGC
                           (   1   1   0   0   0   0   0)

     celldm(1)=   5.344953  celldm(2)=   0.000000  celldm(3)=   0.000000
     celldm(4)=   0.000000  celldm(5)=   0.000000  celldm(6)=   0.000000

     crystal axes: (cart. coord. in units of alat)
               a(1) = (   0.000000   0.715448   0.715448 )  
               a(2) = (   0.715448   0.000000   0.715448 )  
               a(3) = (   0.715448   0.715448  -0.000000 )  

     reciprocal axes: (cart. coord. in units 2 pi/alat)
               b(1) = ( -0.698863  0.698863  0.698863 )  
               b(2) = (  0.698863 -0.698863  0.698863 )  
               b(3) = (  0.698863  0.698863 -0.698863 )  


     PseudoPot. # 1 for Au read from file:
     /home/bond/Software/QE/qe-7.4.1/pseudo/Au.pz-d-rrkjus.UPF
     MD5 check sum: 424ffd4ac9c90487cbadcd287136c95b
     Pseudo is Ultrasoft, Zval = 11.0
     Generated by new atomic code, or converted to UPF format
     Using radial grid of 1279 points,  3 beta functions with: 
                l(1) =   2
                l(2) =   2
                l(3) =   1
     Q(r) pseudized with 0 coefficients 


     atomic species   valence    mass     pseudopotential
     Au               11.00   196.96657     Au( 1.00)

     48 Sym. Ops., with inversion, found



   Cartesian axes

     site n.     atom                  positions (alat units)
         1        Au     tau(   1) = (   0.0000000   0.0000000   0.0000000  )

     number of k points=   110  Methfessel-Paxton smearing, width (Ry)=  0.0200

     Number of k-points >= 100: set verbosity='high' to print them.

     Dense  grid:    10849 G-vectors     FFT dimensions: (  32,  32,  32)

     Smooth grid:     3839 G-vectors     FFT dimensions: (  24,  24,  24)

     Estimated max dynamical RAM per process >      18.33 MB

     Estimated total dynamical RAM >      36.66 MB

     Initial potential from superposition of free atoms

     starting charge      10.9999, renormalised to      11.0000
     Starting wfcs are    9 randomized atomic wfcs +    1 random wfcs

     total cpu time spent up to now is       16.8 secs

     Self-consistent Calculation

     iteration #  1     ecut=    40.00 Ry     beta= 0.70
     Davidson diagonalization with overlap
     c_bands:  1 eigenvalues not converged
     c_bands:  1 eigenvalues not converged
     ethr =  1.00E-06,  avg # of iterations = 11.8

     total cpu time spent up to now is       19.4 secs

     total energy              =     -66.84565163 Ry
     estimated scf accuracy    <       0.07841252 Ry

     iteration #  2     ecut=    40.00 Ry     beta= 0.70
     Davidson diagonalization with overlap
     ethr =  7.13E-04,  avg # of iterations =  2.0

     total cpu time spent up to now is       20.4 secs

     total energy              =     -66.86897427 Ry
     estimated scf accuracy    <       0.02660204 Ry

     iteration #  3     ecut=    40.00 Ry     beta= 0.70
     Davidson diagonalization with overlap
     ethr =  2.42E-04,  avg # of iterations =  1.7

     total cpu time spent up to now is       21.4 secs

     total energy              =     -66.87408763 Ry
     estimated scf accuracy    <       0.00002931 Ry

     iteration #  4     ecut=    40.00 Ry     beta= 0.70
     Davidson diagonalization with overlap
     ethr =  2.66E-07,  avg # of iterations =  2.3

     total cpu time spent up to now is       22.4 secs

     total energy              =     -66.87410689 Ry
     estimated scf accuracy    <       0.00000333 Ry

     iteration #  5     ecut=    40.00 Ry     beta= 0.70
     Davidson diagonalization with overlap
     ethr =  3.03E-08,  avg # of iterations =  1.0

     total cpu time spent up to now is       23.2 secs

     total energy              =     -66.87410710 Ry
     estimated scf accuracy    <       0.00000006 Ry

     iteration #  6     ecut=    40.00 Ry     beta= 0.70
     Davidson diagonalization with overlap
     ethr =  5.74E-10,  avg # of iterations =  2.0

     total cpu time spent up to now is       24.1 secs

     total energy              =     -66.87410712 Ry
     estimated scf accuracy    <          1.6E-09 Ry

     iteration #  7     ecut=    40.00 Ry     beta= 0.70
     Davidson diagonalization with overlap
     ethr =  1.46E-11,  avg # of iterations =  2.0

     total cpu time spent up to now is       25.0 secs

     End of self-consistent calculation

     Number of k-points >= 100: set verbosity='high' to print the bands.

     the Fermi energy is    16.1909 ev

!    total energy              =     -66.87410712 Ry
     estimated scf accuracy    <          3.5E-11 Ry
     smearing contrib. (-TS)   =       0.00006137 Ry
     internal energy E=F+TS    =     -66.87416848 Ry

     The total energy is F=E-TS. E is the sum of the following terms:
     one-electron contribution =       8.99010923 Ry
     hartree contribution      =       7.13516576 Ry
     xc contribution           =     -10.46240054 Ry
     ewald contribution        =     -72.53704294 Ry

     convergence has been achieved in   7 iterations


     Computing stress (Cartesian axis) and pressure

          total   stress  (Ry/bohr**3)                   (kbar)     P=       -0.15
  -0.00000103   0.00000000   0.00000000           -0.15        0.00        0.00
   0.00000000  -0.00000103   0.00000000            0.00       -0.15        0.00
   0.00000000   0.00000000  -0.00000103            0.00        0.00       -0.15

     Message from routine punch:
     Nothing written, as per user request (disk_io='none')

     init_run     :      1.55s CPU      1.72s WALL (       2 calls)
     electrons    :     20.18s CPU     22.14s WALL (       4 calls)
     update_pot   :      0.01s CPU      0.01s WALL (       2 calls)
     stress       :      1.18s CPU      1.21s WALL (       4 calls)

     Called by init_run:
     wfcinit      :      0.65s CPU      0.71s WALL (       2 calls)
     potinit      :      0.20s CPU      0.23s WALL (       2 calls)
     hinit0       :      0.63s CPU      0.67s WALL (       2 calls)

     Called by electrons:
     c_bands      :     16.93s CPU     18.53s WALL (      21 calls)
     sum_band     :      2.98s CPU      3.33s WALL (      21 calls)
     v_of_rho     :      0.03s CPU      0.03s WALL (      22 calls)
     newd         :      0.26s CPU      0.28s WALL (      22 calls)
     mix_rho      :      0.01s CPU      0.01s WALL (      21 calls)

     Called by c_bands:
     init_us_2    :      0.35s CPU      0.39s WALL (    5280 calls)
     cegterg      :     16.36s CPU     17.91s WALL (    2310 calls)

     Called by *egterg:
     cdiaghg      :      1.13s CPU      1.25s WALL (    7580 calls)
     h_psi        :     14.41s CPU     15.78s WALL (    8350 calls)
     s_psi        :      0.11s CPU      0.12s WALL (    8350 calls)
     g_psi        :      0.05s CPU      0.06s WALL (    5820 calls)

     Called by h_psi:
     h_psi:calbec :      0.40s CPU      0.44s WALL (    8350 calls)
     vloc_psi     :     13.75s CPU     15.06s WALL (    8350 calls)
     add_vuspsi   :      0.14s CPU      0.15s WALL (    8350 calls)

     General routines
     calbec       :      0.64s CPU      0.70s WALL (   16380 calls)
     fft          :      0.17s CPU      0.18s WALL (     137 calls)
     ffts         :      0.15s CPU      0.17s WALL (      43 calls)
     fftw         :     14.22s CPU     15.66s WALL (  149302 calls)
     interpolate  :      0.16s CPU      0.17s WALL (      22 calls)

     Parallel routines

     PWSCF        :     23.10s CPU     25.30s WALL


   This run was terminated on:  18: 4:43  21Oct2025            

=------------------------------------------------------------------------------=
   JOB DONE.
=------------------------------------------------------------------------------=
