
     Program PWSCF v.7.4.1 starts on  7Oct2025 at 23:57:21 

     This program is part of the open-source Quantum ESPRESSO suite
     for quantum simulation of materials; please cite
         "P. Giannozzi et al., J. Phys.:Condens. Matter 21 395502 (2009);
         "P. Giannozzi et al., J. Phys.:Condens. Matter 29 465901 (2017);
         "P. Giannozzi et al., J. Chem. Phys. 152 154105 (2020);
          URL http://www.quantum-espresso.org", 
     in publications or presentations arising from this work. More details at
     http://www.quantum-espresso.org/quote

     Parallel version (MPI), running on     1 processors

     MPI processes distributed on     1 nodes
     232 MiB available memory on the printing compute node when the environment starts

     Waiting for input...
     Reading input from standard input
Warning: card &CELL ignored
Warning: card / ignored

     Current dimensions of program PWSCF are:
     Max number of different atomic species (ntypx) = 10
     Max number of k-points (npk) =  40000
     Max angular momentum in pseudopotentials (lmaxx) =  4
     Message from routine setup:
     using ibrav=0 with symmetry is DISCOURAGED, use correct ibrav instead

     Subspace diagonalization in iterative solution of the eigenvalue problem:
     a serial algorithm will be used


     G-vector sticks info
     --------------------
     sticks:   dense  smooth     PW     G-vecs:    dense   smooth      PW
     Sum         475     475    151                 6855     6855    1243

     Using Slab Decomposition



     bravais-lattice index     =            0
     lattice parameter (alat)  =       7.5604  a.u.
     unit-cell volume          =     305.5804 (a.u.)^3
     number of atoms/cell      =            2
     number of atomic types    =            1
     number of electrons       =        28.00
     number of Kohn-Sham states=           14
     kinetic-energy cutoff     =      30.0000  Ry
     charge density cutoff     =     120.0000  Ry
     scf convergence threshold =      1.0E-07
     mixing beta               =       0.5000
     number of iterations used =            8  plain     mixing
     Exchange-correlation=  SLA  PZ   NOGX NOGC
                           (   1   1   0   0   0   0   0)

     celldm(1)=   7.560435  celldm(2)=   0.000000  celldm(3)=   0.000000
     celldm(4)=   0.000000  celldm(5)=   0.000000  celldm(6)=   0.000000

     crystal axes: (cart. coord. in units of alat)
               a(1) = (   0.000000   0.707107   0.707107 )  
               a(2) = (   0.707107   0.000000   0.707107 )  
               a(3) = (   0.707107   0.707107   0.000000 )  

     reciprocal axes: (cart. coord. in units 2 pi/alat)
               b(1) = ( -0.707107  0.707107  0.707107 )  
               b(2) = (  0.707107 -0.707107  0.707107 )  
               b(3) = (  0.707107  0.707107 -0.707107 )  


     PseudoPot. # 1 for Ge read from file:
     /home/bond/Software/QE/qe-7.4.1/pseudo/ge_lda_v1.4.uspp.F.UPF
     MD5 check sum: bf9d52b59cc8a669818bb2b52e0c2ba0
     Pseudo is Ultrasoft + core correction, Zval = 14.0
     Generated by new atomic code, or converted to UPF format
     Using radial grid of  873 points,  6 beta functions with: 
                l(1) =   0
                l(2) =   0
                l(3) =   1
                l(4) =   1
                l(5) =   2
                l(6) =   2
     Q(r) pseudized with  8 coefficients,  rinner =    1.400   1.400   1.400
                                                       1.400   1.400

     atomic species   valence    mass     pseudopotential
     Ge               14.00    72.63000     Ge( 1.00)

     48 Sym. Ops., with inversion, found (24 have fractional translation)



   Cartesian axes

     site n.     atom                  positions (alat units)
         1        Ge     tau(   1) = (   0.0000000   0.0000000   0.0000000  )
         2        Ge     tau(   2) = (   0.3535534   0.3535534   0.3535534  )

     number of k points=     8
                       cart. coord. in units 2pi/alat
        k(    1) = (   0.0000000   0.0000000   0.0000000), wk =   0.0312500
        k(    2) = (   0.1767767   0.1767767  -0.1767767), wk =   0.2500000
        k(    3) = (  -0.3535534  -0.3535534   0.3535534), wk =   0.1250000
        k(    4) = (   0.3535534   0.0000000   0.0000000), wk =   0.1875000
        k(    5) = (  -0.1767767  -0.5303301   0.5303301), wk =   0.7500000
        k(    6) = (   0.0000000  -0.3535534   0.3535534), wk =   0.3750000
        k(    7) = (  -0.7071068   0.0000000   0.0000000), wk =   0.0937500
        k(    8) = (  -0.7071068   0.3535534   0.0000000), wk =   0.1875000

     Dense  grid:     6855 G-vectors     FFT dimensions: (  32,  32,  32)

     Estimated max dynamical RAM per process >      29.10 MB

     Check: negative core charge=   -0.000126

     Initial potential from superposition of free atoms

     starting charge      27.9986, renormalised to      28.0000
     Starting wfcs are   18 randomized atomic wfcs

     total cpu time spent up to now is        0.8 secs

     Self-consistent Calculation

     iteration #  1     ecut=    30.00 Ry     beta= 0.50
     Davidson diagonalization with overlap
     ethr =  1.00E-02,  avg # of iterations =  1.6

     Threshold (ethr) on eigenvalues was too large:
     Diagonalizing with lowered threshold

     Davidson diagonalization with overlap
     ethr =  1.36E-04,  avg # of iterations =  2.0

     total cpu time spent up to now is        1.2 secs

     total energy              =    -426.12033575 Ry
     estimated scf accuracy    <       0.04062275 Ry

     iteration #  2     ecut=    30.00 Ry     beta= 0.50
     Davidson diagonalization with overlap
     ethr =  1.45E-04,  avg # of iterations =  1.1

     total cpu time spent up to now is        1.4 secs

     total energy              =    -426.11893860 Ry
     estimated scf accuracy    <       0.00697096 Ry

     iteration #  3     ecut=    30.00 Ry     beta= 0.50
     Davidson diagonalization with overlap
     ethr =  2.49E-05,  avg # of iterations =  2.0

     total cpu time spent up to now is        1.6 secs

     total energy              =    -426.11946809 Ry
     estimated scf accuracy    <       0.00007345 Ry

     iteration #  4     ecut=    30.00 Ry     beta= 0.50
     Davidson diagonalization with overlap
     ethr =  2.62E-07,  avg # of iterations =  3.8

     total cpu time spent up to now is        1.8 secs

     total energy              =    -426.11948686 Ry
     estimated scf accuracy    <       0.00000638 Ry

     iteration #  5     ecut=    30.00 Ry     beta= 0.50
     Davidson diagonalization with overlap
     ethr =  2.28E-08,  avg # of iterations =  2.4

     total cpu time spent up to now is        2.1 secs

     End of self-consistent calculation

          k = 0.0000 0.0000 0.0000 (   869 PWs)   bands (ev):

   -16.7628 -16.7628 -16.7628 -16.7381 -16.7381 -16.5363 -16.5363 -16.5363
   -16.5134 -16.5134  -4.6278   8.0038   8.1955   8.1955

          k = 0.1768 0.1768-0.1768 (   854 PWs)   bands (ev):

   -16.7845 -16.7845 -16.7568 -16.7023 -16.7023 -16.5495 -16.5495 -16.5390
   -16.4932 -16.4932  -3.8860   3.4139   7.3100   7.3100

          k =-0.3536-0.3536 0.3536 (   862 PWs)   bands (ev):

   -16.7873 -16.7873 -16.7548 -16.6958 -16.6958 -16.5607 -16.5607 -16.5453
   -16.4901 -16.4901  -2.5399   0.5413   6.7882   6.7882

          k = 0.3536 0.0000 0.0000 (   849 PWs)   bands (ev):

   -16.7801 -16.7801 -16.7770 -16.6953 -16.6652 -16.6146 -16.5419 -16.4998
   -16.4971 -16.4971  -3.6182   3.4049   6.1509   6.1509

          k =-0.1768-0.5303 0.5303 (   845 PWs)   bands (ev):

   -16.8089 -16.7892 -16.7324 -16.6615 -16.6464 -16.6255 -16.5749 -16.5441
   -16.4766 -16.4632  -2.1302   0.7523   4.4381   5.7866

          k = 0.0000-0.3536 0.3536 (   847 PWs)   bands (ev):

   -16.8019 -16.7977 -16.7205 -16.6884 -16.6598 -16.5891 -16.5708 -16.5573
   -16.4769 -16.4695  -2.7441   1.6064   4.2983   6.6867

          k =-0.7071 0.0000 0.0000 (   846 PWs)   bands (ev):

   -16.7940 -16.7940 -16.7188 -16.7188 -16.6187 -16.6187 -16.5597 -16.5597
   -16.4679 -16.4679  -0.7474  -0.7474   5.1131   5.1131

          k =-0.7071 0.3536 0.0000 (   848 PWs)   bands (ev):

   -16.8099 -16.8099 -16.6750 -16.6750 -16.6240 -16.6240 -16.5936 -16.5936
   -16.4581 -16.4581  -0.6497  -0.6497   4.2636   4.2636

     highest occupied level (ev):     8.1955

!    total energy              =    -426.11948793 Ry
     estimated scf accuracy    <       0.00000009 Ry

     The total energy is the sum of the following terms:
     one-electron contribution =    -279.08205279 Ry
     hartree contribution      =     164.96697178 Ry
     xc contribution           =    -114.50993186 Ry
     ewald contribution        =    -197.49447506 Ry

     convergence has been achieved in   5 iterations

     Forces acting on atoms (cartesian axes, Ry/au):

     atom    1 type  1   force =     0.00000000    0.00000000    0.00000000
     atom    2 type  1   force =     0.00000000    0.00000000    0.00000000

     Total force =     0.000000     Total SCF correction =     0.000000


     Computing stress (Cartesian axis) and pressure

          total   stress  (Ry/bohr**3)                   (kbar)     P=     -143.96
  -0.00097864   0.00000000   0.00000000         -143.96        0.00        0.00
   0.00000000  -0.00097864   0.00000000            0.00     -143.96        0.00
   0.00000000   0.00000000  -0.00097864            0.00        0.00     -143.96

     Message from routine punch:
     Nothing written, as per user request (disk_io='none')

     init_run     :      0.61s CPU      0.63s WALL (       1 calls)
     electrons    :      1.27s CPU      1.29s WALL (       1 calls)
     forces       :      0.04s CPU      0.04s WALL (       1 calls)
     stress       :      0.34s CPU      0.34s WALL (       1 calls)

     Called by init_run:
     wfcinit      :      0.21s CPU      0.22s WALL (       1 calls)
     potinit      :      0.02s CPU      0.02s WALL (       1 calls)
     hinit0       :      0.35s CPU      0.35s WALL (       1 calls)

     Called by electrons:
     c_bands      :      0.85s CPU      0.85s WALL (       6 calls)
     sum_band     :      0.30s CPU      0.31s WALL (       6 calls)
     v_of_rho     :      0.02s CPU      0.02s WALL (       6 calls)
     newd         :      0.13s CPU      0.14s WALL (       6 calls)
     mix_rho      :      0.00s CPU      0.00s WALL (       6 calls)

     Called by c_bands:
     init_us_2    :      0.04s CPU      0.04s WALL (     120 calls)
     cegterg      :      0.76s CPU      0.77s WALL (      48 calls)

     Called by *egterg:
     cdiaghg      :      0.04s CPU      0.04s WALL (     143 calls)
     h_psi        :      0.82s CPU      0.83s WALL (     159 calls)
     s_psi        :      0.02s CPU      0.02s WALL (     159 calls)
     g_psi        :      0.00s CPU      0.00s WALL (     103 calls)

     Called by h_psi:
     h_psi:calbec :      0.03s CPU      0.03s WALL (     159 calls)
     vloc_psi     :      0.77s CPU      0.78s WALL (     159 calls)
     add_vuspsi   :      0.02s CPU      0.02s WALL (     159 calls)

     General routines
     calbec       :      0.05s CPU      0.05s WALL (     343 calls)
     fft          :      0.17s CPU      0.17s WALL (      33 calls)
     ffts         :      0.00s CPU      0.00s WALL (       6 calls)
     fftw         :      0.73s CPU      0.74s WALL (    4170 calls)

     Parallel routines

     PWSCF        :      2.42s CPU      2.46s WALL


   This run was terminated on:  23:57:23   7Oct2025            

=------------------------------------------------------------------------------=
   JOB DONE.
=------------------------------------------------------------------------------=
