LAMMPS (22 Jul 2025 - Update 1)
# ---------- 1. Initialize simulation ---------------------
units metal
atom_style atomic
dimension  3
boundary   p p f
read_data /home/bond/Work/Lab1/Surface/LJ/relax/9_5_100/lammps.data
Reading data file ...
  orthogonal box = (0 0 0) to (8.7451919 8.7451919 26.490092)
  1 by 1 by 1 MPI processor grid
  reading atoms ...
  81 atoms
  read_data CPU = 0.001 seconds

# ---------- 2. Specify interatomic potential ---------------------
pair_style lj/cut 4.5
pair_coeff 1 1 0.392 2.620 4.5

# ---------- 3. Run single point calculation  ---------------------
thermo_style custom step pe lx ly lz press pxx pyy pzz
run 0
WARNING: No fixes with time integration, atoms won't move
For more information see https://docs.lammps.org/err0028 (../verlet.cpp:60)
Generated 0 of 0 mixed pair_coeff terms from geometric mixing rule
Neighbor list info ...
  update: every = 1 steps, delay = 0 steps, check = yes
  max neighbors/atom: 2000, page size: 100000
  master list distance cutoff = 6.5
  ghost atom cutoff = 6.5
  binsize = 3.25, bins = 3 3 9
  1 neighbor lists, perpetual/occasional/extra = 1 0 0
  (1) pair lj/cut, perpetual
      attributes: half, newton on
      pair build: half/bin/atomonly/newton
      stencil: half/bin/3d
      bin: standard
Per MPI rank memory allocation (min/avg/max) = 3.064 | 3.064 | 3.064 Mbytes
   Step         PotEng           Lx             Ly             Lz           Press           Pxx            Pyy            Pzz      
         0  -197.59535      8.7451919      8.7451919      26.490092      0.1543759     -1915.2636     -1915.2636      3830.9904    
Loop time of 2.058e-06 on 1 procs for 0 steps with 81 atoms

48.6% CPU use with 1 MPI tasks x no OpenMP threads

MPI task timing breakdown:
Section |  min time  |  avg time  |  max time  |%varavg| %total
---------------------------------------------------------------
Pair    | 0          | 0          | 0          |   0.0 |  0.00
Neigh   | 0          | 0          | 0          |   0.0 |  0.00
Comm    | 0          | 0          | 0          |   0.0 |  0.00
Output  | 0          | 0          | 0          |   0.0 |  0.00
Modify  | 0          | 0          | 0          |   0.0 |  0.00
Other   |            | 2.058e-06  |            |       |100.00

Nlocal:             81 ave          81 max          81 min
Histogram: 1 0 0 0 0 0 0 0 0 0
Nghost:            435 ave         435 max         435 min
Histogram: 1 0 0 0 0 0 0 0 0 0
Neighs:           1917 ave        1917 max        1917 min
Histogram: 1 0 0 0 0 0 0 0 0 0

Total # of neighbors = 1917
Ave neighs/atom = 23.666667
Neighbor list builds = 0
Dangerous builds = 0
# -- include optimization of the unit cell parameter
fix 1 all box/relax x 0.0 y 0.0 couple xy vmax 0.001

# -- enable optimization of atomic positions (and the cell)
min_style cg
minimize 1e-10 1e-10 1000 10000
Generated 0 of 0 mixed pair_coeff terms from geometric mixing rule
WARNING: Energy due to 3 extra global DOFs will be included in minimizer energies
 (../min.cpp:222)
Per MPI rank memory allocation (min/avg/max) = 4.189 | 4.189 | 4.189 Mbytes
   Step         PotEng           Lx             Ly             Lz           Press           Pxx            Pyy            Pzz      
         0  -197.59535      8.7451919      8.7451919      26.490092      0.1543759     -1915.2636     -1915.2636      3830.9904    
       108  -197.62693      8.7266185      8.7266185      26.490092      16.125124     -0.69417911    -0.69417911     49.76373     
Loop time of 0.00951736 on 1 procs for 108 steps with 81 atoms

97.3% CPU use with 1 MPI tasks x no OpenMP threads

Minimization stats:
  Stopping criterion = energy tolerance
  Energy initial, next-to-last, final = 
     -197.595345283732  -197.626926248493  -197.626926257856
  Force two-norm initial, final = 3.5134029 0.0030276408
  Force max component initial, final = 2.4218117 0.00087591102
  Final line search alpha, max atom move = 0.21969219 0.00019243081
  Iterations, force evaluations = 108 216

MPI task timing breakdown:
Section |  min time  |  avg time  |  max time  |%varavg| %total
---------------------------------------------------------------
Pair    | 0.0063937  | 0.0063937  | 0.0063937  |   0.0 | 67.18
Neigh   | 0          | 0          | 0          |   0.0 |  0.00
Comm    | 0.00049614 | 0.00049614 | 0.00049614 |   0.0 |  5.21
Output  | 0          | 0          | 0          |   0.0 |  0.00
Modify  | 0          | 0          | 0          |   0.0 |  0.00
Other   |            | 0.002628   |            |       | 27.61

Nlocal:             81 ave          81 max          81 min
Histogram: 1 0 0 0 0 0 0 0 0 0
Nghost:            435 ave         435 max         435 min
Histogram: 1 0 0 0 0 0 0 0 0 0
Neighs:           1917 ave        1917 max        1917 min
Histogram: 1 0 0 0 0 0 0 0 0 0

Total # of neighbors = 1917
Ave neighs/atom = 23.666667
Neighbor list builds = 0
Dangerous builds = 0

# ---- 4. Define and print useful variables -------------
variable natoms equal "count(all)"
variable totenergy equal "pe"
variable length equal "lx"

print "Total energy (eV) = ${totenergy}"
Total energy (eV) = -197.626926257856
print "Number of atoms = ${natoms}"
Number of atoms = 81
print "Lattice constant (Angstoms) = ${length}"
Lattice constant (Angstoms) = 8.7266185265269
Total wall time: 0:00:00
