
     Program PWSCF v.7.4.1 starts on 21Oct2025 at  0:36:57 

     This program is part of the open-source Quantum ESPRESSO suite
     for quantum simulation of materials; please cite
         "P. Giannozzi et al., J. Phys.:Condens. Matter 21 395502 (2009);
         "P. Giannozzi et al., J. Phys.:Condens. Matter 29 465901 (2017);
         "P. Giannozzi et al., J. Chem. Phys. 152 154105 (2020);
          URL http://www.quantum-espresso.org", 
     in publications or presentations arising from this work. More details at
     http://www.quantum-espresso.org/quote

     Parallel version (MPI), running on     2 processors

     MPI processes distributed on     1 nodes
     202 MiB available memory on the printing compute node when the environment starts

     Waiting for input...
     Reading input from standard input
Warning: card &CELL ignored
Warning: card / ignored

     Current dimensions of program PWSCF are:
     Max number of different atomic species (ntypx) = 10
     Max number of k-points (npk) =  40000
     Max angular momentum in pseudopotentials (lmaxx) =  4
     file Fe.pbe-nd-rrkjus.UPF: wavefunction(s)  4S renormalized
     Message from routine setup:
     using ibrav=0 with symmetry is DISCOURAGED, use correct ibrav instead

     R & G space division:  proc/nbgrp/npool/nimage =       2
     Subspace diagonalization in iterative solution of the eigenvalue problem:
     a serial algorithm will be used


     Parallelization info
     --------------------
     sticks:   dense  smooth     PW     G-vecs:    dense   smooth      PW
     Min         328     132     58                 5320     1365     383
     Max         329     133     59                 5321     1366     384
     Sum         657     265    117                10641     2731     767

     Using Slab Decomposition



     bravais-lattice index     =            0
     lattice parameter (alat)  =       5.4006  a.u.
     unit-cell volume          =     121.2574 (a.u.)^3
     number of atoms/cell      =            1
     number of atomic types    =            1
     number of electrons       =         8.00
     number of Kohn-Sham states=            8
     kinetic-energy cutoff     =      30.0000  Ry
     charge density cutoff     =     300.0000  Ry
     scf convergence threshold =      1.0E-07
     mixing beta               =       0.5000
     number of iterations used =            8  plain     mixing
     Exchange-correlation=  SLA  PW   PBE  PBE
                           (   1   4   3   4   0   0   0)

     celldm(1)=   5.400618  celldm(2)=   0.000000  celldm(3)=   0.000000
     celldm(4)=   0.000000  celldm(5)=   0.000000  celldm(6)=   0.000000

     crystal axes: (cart. coord. in units of alat)
               a(1) = (  -0.577350   0.577350   0.577350 )  
               a(2) = (   0.577350  -0.577350   0.577350 )  
               a(3) = (   0.577350   0.577350  -0.577350 )  

     reciprocal axes: (cart. coord. in units 2 pi/alat)
               b(1) = (  0.000000  0.866025  0.866025 )  
               b(2) = (  0.866025  0.000000  0.866025 )  
               b(3) = (  0.866025  0.866025  0.000000 )  


     PseudoPot. # 1 for Fe read from file:
     /home/bond/Software/QE/qe-7.4.1/pseudo/Fe.pbe-nd-rrkjus.UPF
     MD5 check sum: 398036227a04b607635f6f5e8dfd8242
     Pseudo is Ultrasoft + core correction, Zval =  8.0
     Generated by new atomic code, or converted to UPF format
     Using radial grid of  957 points,  6 beta functions with: 
                l(1) =   0
                l(2) =   0
                l(3) =   1
                l(4) =   1
                l(5) =   2
                l(6) =   2
     Q(r) pseudized with 0 coefficients 


     atomic species   valence    mass     pseudopotential
     Fe                8.00    55.84500     Fe( 1.00)

     Starting magnetic structure 
     atomic species   magnetization
     Fe              0.700

     48 Sym. Ops., with inversion, found



   Cartesian axes

     site n.     atom                  positions (alat units)
         1        Fe     tau(   1) = (   0.0000000   0.0000000   0.0000000  )

     number of k points=   104  Methfessel-Paxton smearing, width (Ry)=  0.0200

     Number of k-points >= 100: set verbosity='high' to print them.

     Dense  grid:    10641 G-vectors     FFT dimensions: (  30,  30,  30)

     Smooth grid:     2731 G-vectors     FFT dimensions: (  20,  20,  20)

     Estimated max dynamical RAM per process >      27.41 MB

     Estimated total dynamical RAM >      54.82 MB

     Check: negative core charge=   -0.000018
     Generating pointlists ...
     new r_m :   0.4125 (alat units)  2.2278 (a.u.) for type    1

     Initial potential from superposition of free atoms

     starting charge       7.9994, renormalised to       8.0000
     Starting wfcs are    6 randomized atomic wfcs +    2 random wfcs

     total cpu time spent up to now is        1.1 secs

     Self-consistent Calculation

     iteration #  1     ecut=    30.00 Ry     beta= 0.50
     Davidson diagonalization with overlap
     ethr =  1.00E-02,  avg # of iterations =  4.4

     total cpu time spent up to now is        2.5 secs

     total energy              =     -55.57135893 Ry
     estimated scf accuracy    <       0.40363091 Ry

     total magnetization       =     3.69 Bohr mag/cell
     absolute magnetization    =     3.69 Bohr mag/cell

     iteration #  2     ecut=    30.00 Ry     beta= 0.50
     Davidson diagonalization with overlap
     ethr =  5.05E-03,  avg # of iterations =  1.9

     total cpu time spent up to now is        3.5 secs

     total energy              =     -55.69943377 Ry
     estimated scf accuracy    <       0.19567070 Ry

     total magnetization       =     3.07 Bohr mag/cell
     absolute magnetization    =     3.09 Bohr mag/cell

     iteration #  3     ecut=    30.00 Ry     beta= 0.50
     Davidson diagonalization with overlap
     ethr =  2.45E-03,  avg # of iterations =  1.1

     total cpu time spent up to now is        4.4 secs

     total energy              =     -55.74179423 Ry
     estimated scf accuracy    <       0.00453566 Ry

     total magnetization       =     3.21 Bohr mag/cell
     absolute magnetization    =     3.27 Bohr mag/cell

     iteration #  4     ecut=    30.00 Ry     beta= 0.50
     Davidson diagonalization with overlap
     ethr =  5.67E-05,  avg # of iterations =  3.2

     total cpu time spent up to now is        5.4 secs

     total energy              =     -55.74632826 Ry
     estimated scf accuracy    <       0.00028230 Ry

     total magnetization       =     3.02 Bohr mag/cell
     absolute magnetization    =     3.23 Bohr mag/cell

     iteration #  5     ecut=    30.00 Ry     beta= 0.50
     Davidson diagonalization with overlap
     c_bands:  1 eigenvalues not converged
     c_bands:  1 eigenvalues not converged
     c_bands:  1 eigenvalues not converged
     c_bands:  1 eigenvalues not converged
     c_bands:  1 eigenvalues not converged
     ethr =  3.53E-06,  avg # of iterations =  6.5

     total cpu time spent up to now is        6.8 secs

     total energy              =     -55.74706648 Ry
     estimated scf accuracy    <       0.00007453 Ry

     total magnetization       =     2.92 Bohr mag/cell
     absolute magnetization    =     3.21 Bohr mag/cell

     iteration #  6     ecut=    30.00 Ry     beta= 0.50
     Davidson diagonalization with overlap
     ethr =  9.32E-07,  avg # of iterations =  2.4

     total cpu time spent up to now is        7.7 secs

     total energy              =     -55.74711483 Ry
     estimated scf accuracy    <       0.00001365 Ry

     total magnetization       =     2.91 Bohr mag/cell
     absolute magnetization    =     3.22 Bohr mag/cell

     iteration #  7     ecut=    30.00 Ry     beta= 0.50
     Davidson diagonalization with overlap
     ethr =  1.71E-07,  avg # of iterations =  3.0

     total cpu time spent up to now is        8.8 secs

     total energy              =     -55.74714902 Ry
     estimated scf accuracy    <       0.00000171 Ry

     total magnetization       =     2.89 Bohr mag/cell
     absolute magnetization    =     3.22 Bohr mag/cell

     iteration #  8     ecut=    30.00 Ry     beta= 0.50
     Davidson diagonalization with overlap
     ethr =  2.14E-08,  avg # of iterations =  3.7

     total cpu time spent up to now is        9.9 secs

     total energy              =     -55.74714971 Ry
     estimated scf accuracy    <       0.00000422 Ry

     total magnetization       =     2.90 Bohr mag/cell
     absolute magnetization    =     3.23 Bohr mag/cell

     iteration #  9     ecut=    30.00 Ry     beta= 0.50
     Davidson diagonalization with overlap
     ethr =  2.14E-08,  avg # of iterations =  2.0

     Magnetic moment per site  (integrated on atomic sphere of radius R)
     atom   1 (R=0.413)  charge=  6.7399  magn=  3.0520

     total cpu time spent up to now is       10.8 secs

     End of self-consistent calculation

     Number of k-points >= 100: set verbosity='high' to print the bands.

     the Fermi energy is     7.5687 ev

!    total energy              =     -55.74715070 Ry
     estimated scf accuracy    <       0.00000001 Ry
     smearing contrib. (-TS)   =      -0.00014294 Ry
     internal energy E=F+TS    =     -55.74700776 Ry

     The total energy is F=E-TS. E is the sum of the following terms:
     one-electron contribution =      -1.19224280 Ry
     hartree contribution      =       9.09779824 Ry
     xc contribution           =     -26.30372622 Ry
     ewald contribution        =     -37.34883698 Ry

     total magnetization       =     2.90 Bohr mag/cell
     absolute magnetization    =     3.23 Bohr mag/cell

     convergence has been achieved in   9 iterations

     Forces acting on atoms (cartesian axes, Ry/au):

     atom    1 type  1   force =     0.00000000    0.00000000    0.00000000

     Total force =     0.000000     Total SCF correction =     0.000000


     Computing stress (Cartesian axis) and pressure

          total   stress  (Ry/bohr**3)                   (kbar)     P=     -269.83
  -0.00183428  -0.00000000  -0.00000000         -269.83       -0.00       -0.00
  -0.00000000  -0.00183428  -0.00000000           -0.00     -269.83       -0.00
  -0.00000000  -0.00000000  -0.00183428           -0.00       -0.00     -269.83

     Message from routine punch:
     Nothing written, as per user request (disk_io='none')

     init_run     :      0.84s CPU      0.92s WALL (       1 calls)
     electrons    :      8.30s CPU      9.62s WALL (       1 calls)
     forces       :      0.09s CPU      0.09s WALL (       1 calls)
     stress       :      0.50s CPU      0.50s WALL (       1 calls)

     Called by init_run:
     wfcinit      :      0.32s CPU      0.36s WALL (       1 calls)
     potinit      :      0.17s CPU      0.19s WALL (       1 calls)
     hinit0       :      0.30s CPU      0.31s WALL (       1 calls)

     Called by electrons:
     c_bands      :      6.62s CPU      7.71s WALL (       9 calls)
     sum_band     :      1.29s CPU      1.49s WALL (       9 calls)
     v_of_rho     :      0.19s CPU      0.20s WALL (      10 calls)
     newd         :      0.24s CPU      0.26s WALL (      10 calls)
     mix_rho      :      0.01s CPU      0.02s WALL (       9 calls)

     Called by c_bands:
     init_us_2    :      0.26s CPU      0.30s WALL (    4368 calls)
     cegterg      :      6.12s CPU      7.13s WALL (    1872 calls)

     Called by *egterg:
     cdiaghg      :      0.72s CPU      0.84s WALL (    7723 calls)
     h_psi        :      4.77s CPU      5.55s WALL (    7931 calls)
     s_psi        :      0.08s CPU      0.10s WALL (    7931 calls)
     g_psi        :      0.03s CPU      0.03s WALL (    5851 calls)

     Called by h_psi:
     h_psi:calbec :      0.27s CPU      0.31s WALL (    7931 calls)
     vloc_psi     :      4.32s CPU      5.03s WALL (    7931 calls)
     add_vuspsi   :      0.10s CPU      0.12s WALL (    7931 calls)

     General routines
     calbec       :      0.37s CPU      0.43s WALL (   13339 calls)
     fft          :      0.21s CPU      0.22s WALL (     288 calls)
     ffts         :      0.13s CPU      0.14s WALL (      38 calls)
     fftw         :      4.08s CPU      4.78s WALL (   96984 calls)
     interpolate  :      0.14s CPU      0.15s WALL (      20 calls)

     Parallel routines

     PWSCF        :      9.93s CPU     11.35s WALL


   This run was terminated on:   0:37: 8  21Oct2025            

=------------------------------------------------------------------------------=
   JOB DONE.
=------------------------------------------------------------------------------=
