
     Program PWSCF v.7.4.1 starts on  8Oct2025 at  0:23:38 

     This program is part of the open-source Quantum ESPRESSO suite
     for quantum simulation of materials; please cite
         "P. Giannozzi et al., J. Phys.:Condens. Matter 21 395502 (2009);
         "P. Giannozzi et al., J. Phys.:Condens. Matter 29 465901 (2017);
         "P. Giannozzi et al., J. Chem. Phys. 152 154105 (2020);
          URL http://www.quantum-espresso.org", 
     in publications or presentations arising from this work. More details at
     http://www.quantum-espresso.org/quote

     Parallel version (MPI), running on     1 processors

     MPI processes distributed on     1 nodes
     173 MiB available memory on the printing compute node when the environment starts

     Waiting for input...
     Reading input from standard input
Warning: card &CELL ignored
Warning: card / ignored

     Current dimensions of program PWSCF are:
     Max number of different atomic species (ntypx) = 10
     Max number of k-points (npk) =  40000
     Max angular momentum in pseudopotentials (lmaxx) =  4
     Message from routine setup:
     using ibrav=0 with symmetry is DISCOURAGED, use correct ibrav instead

     Subspace diagonalization in iterative solution of the eigenvalue problem:
     a serial algorithm will be used


     G-vector sticks info
     --------------------
     sticks:   dense  smooth     PW     G-vecs:    dense   smooth      PW
     Sum         637     637    199                10417    10417    1807

     Using Slab Decomposition



     bravais-lattice index     =            0
     lattice parameter (alat)  =       7.5604  a.u.
     unit-cell volume          =     305.5804 (a.u.)^3
     number of atoms/cell      =            2
     number of atomic types    =            1
     number of electrons       =        28.00
     number of Kohn-Sham states=           14
     kinetic-energy cutoff     =      40.0000  Ry
     charge density cutoff     =     160.0000  Ry
     scf convergence threshold =      1.0E-07
     mixing beta               =       0.5000
     number of iterations used =            8  plain     mixing
     Exchange-correlation=  SLA  PZ   NOGX NOGC
                           (   1   1   0   0   0   0   0)

     celldm(1)=   7.560435  celldm(2)=   0.000000  celldm(3)=   0.000000
     celldm(4)=   0.000000  celldm(5)=   0.000000  celldm(6)=   0.000000

     crystal axes: (cart. coord. in units of alat)
               a(1) = (   0.000000   0.707107   0.707107 )  
               a(2) = (   0.707107   0.000000   0.707107 )  
               a(3) = (   0.707107   0.707107   0.000000 )  

     reciprocal axes: (cart. coord. in units 2 pi/alat)
               b(1) = ( -0.707107  0.707107  0.707107 )  
               b(2) = (  0.707107 -0.707107  0.707107 )  
               b(3) = (  0.707107  0.707107 -0.707107 )  


     PseudoPot. # 1 for Ge read from file:
     /home/bond/Software/QE/qe-7.4.1/pseudo/ge_lda_v1.4.uspp.F.UPF
     MD5 check sum: bf9d52b59cc8a669818bb2b52e0c2ba0
     Pseudo is Ultrasoft + core correction, Zval = 14.0
     Generated by new atomic code, or converted to UPF format
     Using radial grid of  873 points,  6 beta functions with: 
                l(1) =   0
                l(2) =   0
                l(3) =   1
                l(4) =   1
                l(5) =   2
                l(6) =   2
     Q(r) pseudized with  8 coefficients,  rinner =    1.400   1.400   1.400
                                                       1.400   1.400

     atomic species   valence    mass     pseudopotential
     Ge               14.00    72.63000     Ge( 1.00)

      4 Sym. Ops. (no inversion) found



   Cartesian axes

     site n.     atom                  positions (alat units)
         1        Ge     tau(   1) = (   0.0000000   0.0000000   0.0707107  )
         2        Ge     tau(   2) = (   0.3535534   0.3535534   0.3535534  )

     number of k points=    18
                       cart. coord. in units 2pi/alat
        k(    1) = (   0.0000000   0.0000000   0.0000000), wk =   0.0312500
        k(    2) = (   0.1767767   0.1767767  -0.1767767), wk =   0.1250000
        k(    3) = (  -0.3535534  -0.3535534   0.3535534), wk =   0.0625000
        k(    4) = (   0.3535534   0.0000000   0.0000000), wk =   0.1250000
        k(    5) = (  -0.1767767  -0.5303301   0.5303301), wk =   0.2500000
        k(    6) = (   0.0000000  -0.3535534   0.3535534), wk =   0.2500000
        k(    7) = (  -0.7071068   0.0000000   0.0000000), wk =   0.0625000
        k(    8) = (  -0.7071068   0.3535534   0.0000000), wk =   0.1250000
        k(    9) = (   0.1767767  -0.1767767  -0.1767767), wk =   0.1250000
        k(   10) = (  -0.3535534   0.3535534   0.3535534), wk =   0.0625000
        k(   11) = (   0.0000000   0.0000000   0.3535534), wk =   0.0625000
        k(   12) = (  -0.5303301   0.1767767   0.5303301), wk =   0.2500000
        k(   13) = (   0.5303301   0.5303301  -0.1767767), wk =   0.1250000
        k(   14) = (  -0.5303301   0.5303301   0.1767767), wk =   0.1250000
        k(   15) = (   0.3535534   0.3535534   0.0000000), wk =   0.0625000
        k(   16) = (  -0.3535534   0.3535534   0.0000000), wk =   0.0625000
        k(   17) = (   0.0000000   0.0000000  -0.7071068), wk =   0.0312500
        k(   18) = (   0.7071068   0.0000000   0.3535534), wk =   0.0625000

     Dense  grid:    10417 G-vectors     FFT dimensions: (  32,  32,  32)

     Estimated max dynamical RAM per process >      45.56 MB

     Check: negative core charge=   -0.000004

     Initial potential from superposition of free atoms

     starting charge      27.9986, renormalised to      28.0000
     Starting wfcs are   18 randomized atomic wfcs

     total cpu time spent up to now is        0.9 secs

     Self-consistent Calculation

     iteration #  1     ecut=    40.00 Ry     beta= 0.50
     Davidson diagonalization with overlap
     ethr =  1.00E-02,  avg # of iterations =  1.8

     Threshold (ethr) on eigenvalues was too large:
     Diagonalizing with lowered threshold

     Davidson diagonalization with overlap
     ethr =  1.36E-04,  avg # of iterations =  2.0

     total cpu time spent up to now is        1.8 secs

     total energy              =    -426.12070356 Ry
     estimated scf accuracy    <       0.04006698 Ry

     iteration #  2     ecut=    40.00 Ry     beta= 0.50
     Davidson diagonalization with overlap
     ethr =  1.43E-04,  avg # of iterations =  1.1

     total cpu time spent up to now is        2.3 secs

     total energy              =    -426.11921945 Ry
     estimated scf accuracy    <       0.00691929 Ry

     iteration #  3     ecut=    40.00 Ry     beta= 0.50
     Davidson diagonalization with overlap
     ethr =  2.47E-05,  avg # of iterations =  2.2

     total cpu time spent up to now is        2.8 secs

     total energy              =    -426.11976807 Ry
     estimated scf accuracy    <       0.00008842 Ry

     iteration #  4     ecut=    40.00 Ry     beta= 0.50
     Davidson diagonalization with overlap
     ethr =  3.16E-07,  avg # of iterations =  3.3

     total cpu time spent up to now is        3.4 secs

     total energy              =    -426.11979944 Ry
     estimated scf accuracy    <       0.00000284 Ry

     iteration #  5     ecut=    40.00 Ry     beta= 0.50
     Davidson diagonalization with overlap
     ethr =  1.01E-08,  avg # of iterations =  4.3

     total cpu time spent up to now is        4.0 secs

     total energy              =    -426.11980047 Ry
     estimated scf accuracy    <       0.00000018 Ry

     iteration #  6     ecut=    40.00 Ry     beta= 0.50
     Davidson diagonalization with overlap
     ethr =  6.32E-10,  avg # of iterations =  2.9

     total cpu time spent up to now is        4.5 secs

     End of self-consistent calculation

          k = 0.0000 0.0000 0.0000 (  1291 PWs)   bands (ev):

   -16.8258 -16.8200 -16.7582 -16.7219 -16.6967 -16.5478 -16.5163 -16.5141
   -16.4892 -16.4854  -4.7157   6.8894   7.9970   8.4114

          k = 0.1768 0.1768-0.1768 (  1323 PWs)   bands (ev):

   -16.8745 -16.8565 -16.7592 -16.6768 -16.6733 -16.5679 -16.5629 -16.4801
   -16.4687 -16.4414  -3.9326   2.8202   6.9661   8.0229

          k =-0.3536-0.3536 0.3536 (  1308 PWs)   bands (ev):

   -16.9024 -16.8885 -16.7451 -16.6859 -16.6582 -16.5663 -16.5640 -16.4848
   -16.4408 -16.4115  -2.2957  -0.2979   6.3495   7.4856

          k = 0.3536 0.0000 0.0000 (  1299 PWs)   bands (ev):

   -16.8733 -16.8602 -16.7554 -16.6666 -16.6420 -16.6119 -16.5621 -16.4885
   -16.4541 -16.4459  -3.7209   3.0866   6.2338   6.4029

          k =-0.1768-0.5303 0.5303 (  1301 PWs)   bands (ev):

   -16.9091 -16.8852 -16.7367 -16.6711 -16.6419 -16.5822 -16.5756 -16.5083
   -16.4318 -16.4042  -2.0117   0.0319   4.8145   5.9028

          k = 0.0000-0.3536 0.3536 (  1312 PWs)   bands (ev):

   -16.8868 -16.8459 -16.7278 -16.6894 -16.6516 -16.5862 -16.5568 -16.5225
   -16.4602 -16.4273  -2.8905   1.5578   4.2062   6.8679

          k =-0.7071 0.0000 0.0000 (  1298 PWs)   bands (ev):

   -16.8975 -16.8975 -16.7053 -16.7053 -16.6086 -16.6083 -16.5456 -16.5456
   -16.4154 -16.4154  -0.9076  -0.9075   5.2465   5.2465

          k =-0.7071 0.3536 0.0000 (  1316 PWs)   bands (ev):

   -16.8976 -16.8290 -16.7137 -16.6996 -16.6229 -16.6191 -16.5444 -16.5415
   -16.4663 -16.4154  -1.4318   0.0018   3.8758   4.6281

          k = 0.1768-0.1768-0.1768 (  1323 PWs)   bands (ev):

   -16.8284 -16.8203 -16.7450 -16.7125 -16.6811 -16.5630 -16.5379 -16.5143
   -16.4849 -16.4812  -4.0450   3.9153   6.3360   7.9791

          k =-0.3536 0.3536 0.3536 (  1308 PWs)   bands (ev):

   -16.8332 -16.8123 -16.7364 -16.7086 -16.6562 -16.5876 -16.5500 -16.5095
   -16.4883 -16.4797  -2.9750   1.3162   5.9251   7.5566

          k = 0.0000 0.0000 0.3536 (  1299 PWs)   bands (ev):

   -16.8324 -16.8143 -16.7337 -16.7158 -16.6961 -16.5706 -16.5193 -16.5073
   -16.4916 -16.4836  -3.7455   3.5760   5.4971   6.5168

          k =-0.5303 0.1768 0.5303 (  1301 PWs)   bands (ev):

   -16.8870 -16.8482 -16.7237 -16.6641 -16.6390 -16.6032 -16.5810 -16.5254
   -16.4544 -16.4271  -2.4884   1.2778   3.9612   6.0146

          k = 0.5303 0.5303-0.1768 (  1301 PWs)   bands (ev):

   -16.8974 -16.8236 -16.7377 -16.6963 -16.6474 -16.5994 -16.5469 -16.4952
   -16.4909 -16.4161  -2.1644   0.4639   4.0846   6.1776

          k =-0.5303 0.5303 0.1768 (  1301 PWs)   bands (ev):

   -16.8394 -16.8061 -16.7185 -16.7094 -16.6814 -16.5801 -16.5441 -16.5255
   -16.4771 -16.4764  -2.5389   1.3733   4.7696   5.1722

          k = 0.3536 0.3536 0.0000 (  1312 PWs)   bands (ev):

   -16.9182 -16.8705 -16.7603 -16.6579 -16.6420 -16.6029 -16.5668 -16.4747
   -16.4576 -16.3967  -2.5986   0.6343   4.4014   7.3076

          k =-0.3536 0.3536 0.0000 (  1312 PWs)   bands (ev):

   -16.8378 -16.8158 -16.7265 -16.7059 -16.6261 -16.6214 -16.5514 -16.5309
   -16.4739 -16.4723  -3.1070   2.5804   4.2910   5.8692

          k = 0.0000 0.0000-0.7071 (  1298 PWs)   bands (ev):

   -16.8436 -16.7878 -16.7313 -16.7029 -16.6990 -16.5830 -16.5354 -16.5068
   -16.4942 -16.4703  -1.7124   0.2660   4.6085   5.4074

          k = 0.7071 0.0000 0.3536 (  1316 PWs)   bands (ev):

   -16.9006 -16.9006 -16.6921 -16.6921 -16.6102 -16.6099 -16.5591 -16.5591
   -16.4104 -16.4104  -0.8196  -0.8195   4.3780   4.3780

     highest occupied level (ev):     8.4114

!    total energy              =    -426.11980051 Ry
     estimated scf accuracy    <       0.00000002 Ry

     The total energy is the sum of the following terms:
     one-electron contribution =    -280.50332072 Ry
     hartree contribution      =     165.69194958 Ry
     xc contribution           =    -114.55921130 Ry
     ewald contribution        =    -196.74921807 Ry

     convergence has been achieved in   6 iterations

     Forces acting on atoms (cartesian axes, Ry/au):

     atom    1 type  1   force =     0.00000000    0.00000000   -0.11632694
     atom    2 type  1   force =     0.00000000    0.00000000    0.11632694

     Total force =     0.164511     Total SCF correction =     0.000493


     Computing stress (Cartesian axis) and pressure

          total   stress  (Ry/bohr**3)                   (kbar)     P=       19.39
   0.00018885   0.00050520   0.00000000           27.78       74.32        0.00
   0.00050520   0.00018885   0.00000000           74.32       27.78        0.00
   0.00000000   0.00000000   0.00001768            0.00        0.00        2.60

     Message from routine punch:
     Nothing written, as per user request (disk_io='none')

     init_run     :      0.77s CPU      0.80s WALL (       1 calls)
     electrons    :      3.53s CPU      3.58s WALL (       1 calls)
     forces       :      0.08s CPU      0.08s WALL (       1 calls)
     stress       :      0.60s CPU      0.60s WALL (       1 calls)

     Called by init_run:
     wfcinit      :      0.34s CPU      0.34s WALL (       1 calls)
     potinit      :      0.02s CPU      0.02s WALL (       1 calls)
     hinit0       :      0.37s CPU      0.37s WALL (       1 calls)

     Called by electrons:
     c_bands      :      2.60s CPU      2.64s WALL (       7 calls)
     sum_band     :      0.70s CPU      0.72s WALL (       7 calls)
     v_of_rho     :      0.02s CPU      0.02s WALL (       7 calls)
     newd         :      0.24s CPU      0.26s WALL (       7 calls)
     mix_rho      :      0.01s CPU      0.01s WALL (       7 calls)

     Called by c_bands:
     init_us_2    :      0.15s CPU      0.15s WALL (     306 calls)
     cegterg      :      2.29s CPU      2.32s WALL (     126 calls)

     Called by *egterg:
     cdiaghg      :      0.11s CPU      0.12s WALL (     427 calls)
     h_psi        :      2.05s CPU      2.07s WALL (     463 calls)
     s_psi        :      0.08s CPU      0.08s WALL (     463 calls)
     g_psi        :      0.02s CPU      0.02s WALL (     319 calls)

     Called by h_psi:
     h_psi:calbec :      0.10s CPU      0.10s WALL (     463 calls)
     vloc_psi     :      1.84s CPU      1.86s WALL (     463 calls)
     add_vuspsi   :      0.09s CPU      0.09s WALL (     463 calls)

     General routines
     calbec       :      0.20s CPU      0.20s WALL (     895 calls)
     fft          :      0.16s CPU      0.17s WALL (      37 calls)
     ffts         :      0.00s CPU      0.00s WALL (       7 calls)
     fftw         :      1.72s CPU      1.74s WALL (   11350 calls)

     Parallel routines

     PWSCF        :      5.12s CPU      5.22s WALL


   This run was terminated on:   0:23:43   8Oct2025            

=------------------------------------------------------------------------------=
   JOB DONE.
=------------------------------------------------------------------------------=
