
     Program PWSCF v.7.4.1 starts on 20Oct2025 at 17:57:50 

     This program is part of the open-source Quantum ESPRESSO suite
     for quantum simulation of materials; please cite
         "P. Giannozzi et al., J. Phys.:Condens. Matter 21 395502 (2009);
         "P. Giannozzi et al., J. Phys.:Condens. Matter 29 465901 (2017);
         "P. Giannozzi et al., J. Chem. Phys. 152 154105 (2020);
          URL http://www.quantum-espresso.org", 
     in publications or presentations arising from this work. More details at
     http://www.quantum-espresso.org/quote

     Parallel version (MPI), running on     2 processors

     MPI processes distributed on     1 nodes
     302 MiB available memory on the printing compute node when the environment starts

     Waiting for input...
     Reading input from standard input

     Current dimensions of program PWSCF are:
     Max number of different atomic species (ntypx) = 10
     Max number of k-points (npk) =  40000
     Max angular momentum in pseudopotentials (lmaxx) =  4
     file Fe.pbe-nd-rrkjus.UPF: wavefunction(s)  4S renormalized
     Message from routine find_sym:
     Not a group! Trying with lower acceptance parameter...
     Message from routine find_sym:
     Symmetry operations form a group
     Message from routine setup:
     using ibrav=0 with symmetry is DISCOURAGED, use correct ibrav instead

     R & G space division:  proc/nbgrp/npool/nimage =       2
     Subspace diagonalization in iterative solution of the eigenvalue problem:
     a serial algorithm will be used


     Parallelization info
     --------------------
     sticks:   dense  smooth     PW     G-vecs:    dense   smooth      PW
     Min         273     105     36                 7823     1983     373
     Max         274     106     37                 7826     1986     374
     Sum         547     211     73                15649     3969     747

     Using Slab Decomposition



     bravais-lattice index     =            0
     lattice parameter (alat)  =       5.1023  a.u.
     unit-cell volume          =     178.9386 (a.u.)^3
     number of atoms/cell      =            2
     number of atomic types    =            1
     number of electrons       =        16.00
     number of Kohn-Sham states=           12
     kinetic-energy cutoff     =      30.0000  Ry
     charge density cutoff     =     300.0000  Ry
     scf convergence threshold =      1.0E-07
     mixing beta               =       0.5000
     number of iterations used =            8  plain     mixing
     energy convergence thresh.=      1.0E-04
     force convergence thresh. =      1.0E-03
     press convergence thresh. =      5.0E-01
     Exchange-correlation=  SLA  PW   PBE  PBE
                           (   1   4   3   4   0   0   0)
     nstep                     =           50


     celldm(1)=   5.102261  celldm(2)=   0.000000  celldm(3)=   0.000000
     celldm(4)=   0.000000  celldm(5)=   0.000000  celldm(6)=   0.000000

     crystal axes: (cart. coord. in units of alat)
               a(1) = (   1.000000   0.000000   0.000000 )  
               a(2) = (  -0.500000   0.866025   0.000000 )  
               a(3) = (   0.000000   0.000000   1.555556 )  

     reciprocal axes: (cart. coord. in units 2 pi/alat)
               b(1) = (  1.000000  0.577350 -0.000000 )  
               b(2) = (  0.000000  1.154701  0.000000 )  
               b(3) = (  0.000000 -0.000000  0.642857 )  


     PseudoPot. # 1 for Fe read from file:
     /home/bond/Software/QE/qe-7.4.1/pseudo/Fe.pbe-nd-rrkjus.UPF
     MD5 check sum: 398036227a04b607635f6f5e8dfd8242
     Pseudo is Ultrasoft + core correction, Zval =  8.0
     Generated by new atomic code, or converted to UPF format
     Using radial grid of  957 points,  6 beta functions with: 
                l(1) =   0
                l(2) =   0
                l(3) =   1
                l(4) =   1
                l(5) =   2
                l(6) =   2
     Q(r) pseudized with 0 coefficients 


     atomic species   valence    mass     pseudopotential
     Fe                8.00    55.84500     Fe( 1.00)

     Starting magnetic structure 
     atomic species   magnetization
     Fe              0.700

      4 Sym. Ops. (no inversion) found



   Cartesian axes

     site n.     atom                  positions (alat units)
         1        Fe     tau(   1) = (   0.0000000   0.0000000   0.0000000  )
         2        Fe     tau(   2) = (   0.0000000   0.5773519   0.7777778  )

     number of k points=    93  Methfessel-Paxton smearing, width (Ry)=  0.0200
                       cart. coord. in units 2pi/alat
        k(    1) = (   0.0000000   0.0000000   0.0000000), wk =   0.0020000
        k(    2) = (   0.0000000   0.0000000   0.1285714), wk =   0.0040000
        k(    3) = (   0.0000000   0.0000000   0.2571429), wk =   0.0040000
        k(    4) = (   0.0000000   0.1154701   0.0000000), wk =   0.0040000
        k(    5) = (   0.0000000   0.1154701   0.1285714), wk =   0.0080000
        k(    6) = (   0.0000000   0.1154701   0.2571429), wk =   0.0080000
        k(    7) = (   0.0000000   0.2309401   0.0000000), wk =   0.0040000
        k(    8) = (   0.0000000   0.2309401   0.1285714), wk =   0.0080000
        k(    9) = (   0.0000000   0.2309401   0.2571429), wk =   0.0080000
        k(   10) = (   0.0000000   0.3464102   0.0000000), wk =   0.0040000
        k(   11) = (   0.0000000   0.3464102   0.1285714), wk =   0.0080000
        k(   12) = (   0.0000000   0.3464102   0.2571429), wk =   0.0080000
        k(   13) = (   0.0000000   0.4618802   0.0000000), wk =   0.0040000
        k(   14) = (   0.0000000   0.4618802   0.1285714), wk =   0.0080000
        k(   15) = (   0.0000000   0.4618802   0.2571429), wk =   0.0080000
        k(   16) = (   0.0000000  -0.5773503   0.0000000), wk =   0.0020000
        k(   17) = (   0.0000000  -0.5773503   0.1285714), wk =   0.0040000
        k(   18) = (   0.0000000  -0.5773503   0.2571429), wk =   0.0040000
        k(   19) = (   0.1000000   0.1732051   0.0000000), wk =   0.0080000
        k(   20) = (   0.1000000   0.1732051   0.1285714), wk =   0.0160000
        k(   21) = (   0.1000000   0.1732051   0.2571429), wk =   0.0160000
        k(   22) = (   0.1000000   0.2886751   0.0000000), wk =   0.0080000
        k(   23) = (   0.1000000   0.2886751   0.1285714), wk =   0.0160000
        k(   24) = (   0.1000000   0.2886751   0.2571429), wk =   0.0160000
        k(   25) = (   0.1000000   0.4041452   0.0000000), wk =   0.0080000
        k(   26) = (   0.1000000   0.4041452   0.1285714), wk =   0.0160000
        k(   27) = (   0.1000000   0.4041452   0.2571429), wk =   0.0160000
        k(   28) = (   0.1000000   0.5196152   0.0000000), wk =   0.0080000
        k(   29) = (   0.1000000   0.5196152   0.1285714), wk =   0.0160000
        k(   30) = (   0.1000000   0.5196152   0.2571429), wk =   0.0160000
        k(   31) = (   0.2000000   0.3464102   0.0000000), wk =   0.0080000
        k(   32) = (   0.2000000   0.3464102   0.1285714), wk =   0.0160000
        k(   33) = (   0.2000000   0.3464102   0.2571429), wk =   0.0160000
        k(   34) = (   0.2000000   0.4618802   0.0000000), wk =   0.0080000
        k(   35) = (   0.2000000   0.4618802   0.1285714), wk =   0.0160000
        k(   36) = (   0.2000000   0.4618802   0.2571429), wk =   0.0160000
        k(   37) = (   0.2000000   0.5773503   0.0000000), wk =   0.0040000
        k(   38) = (   0.2000000   0.5773503   0.1285714), wk =   0.0080000
        k(   39) = (   0.2000000   0.5773503   0.2571429), wk =   0.0080000
        k(   40) = (   0.3000000   0.5196152   0.0000000), wk =   0.0080000
        k(   41) = (   0.3000000   0.5196152   0.1285714), wk =   0.0160000
        k(   42) = (   0.3000000   0.5196152   0.2571429), wk =   0.0160000
        k(   43) = (   0.1000000  -0.0577350   0.0000000), wk =   0.0080000
        k(   44) = (   0.1000000  -0.0577350   0.1285714), wk =   0.0160000
        k(   45) = (   0.1000000  -0.0577350   0.2571429), wk =   0.0160000
        k(   46) = (   0.2000000  -0.1154701   0.0000000), wk =   0.0080000
        k(   47) = (   0.2000000  -0.1154701   0.1285714), wk =   0.0160000
        k(   48) = (   0.2000000  -0.1154701   0.2571429), wk =   0.0160000
        k(   49) = (   0.3000000  -0.1732051   0.0000000), wk =   0.0080000
        k(   50) = (   0.3000000  -0.1732051   0.1285714), wk =   0.0160000
        k(   51) = (   0.3000000  -0.1732051   0.2571429), wk =   0.0160000
        k(   52) = (   0.4000000  -0.2309401   0.0000000), wk =   0.0080000
        k(   53) = (   0.4000000  -0.2309401   0.1285714), wk =   0.0160000
        k(   54) = (   0.4000000  -0.2309401   0.2571429), wk =   0.0160000
        k(   55) = (  -0.5000000   0.2886751   0.0000000), wk =   0.0040000
        k(   56) = (  -0.5000000   0.2886751   0.1285714), wk =   0.0080000
        k(   57) = (  -0.5000000   0.2886751   0.2571429), wk =   0.0080000
        k(   58) = (   0.2000000  -0.0000000   0.0000000), wk =   0.0040000
        k(   59) = (   0.2000000  -0.0000000  -0.1285714), wk =   0.0080000
        k(   60) = (   0.2000000  -0.0000000  -0.2571429), wk =   0.0080000
        k(   61) = (   0.2000000  -0.2309401   0.0000000), wk =   0.0080000
        k(   62) = (   0.3000000  -0.0577350   0.0000000), wk =   0.0080000
        k(   63) = (   0.2000000  -0.2309401   0.1285714), wk =   0.0160000
        k(   64) = (   0.3000000  -0.0577350  -0.1285714), wk =   0.0160000
        k(   65) = (   0.2000000  -0.2309401   0.2571429), wk =   0.0160000
        k(   66) = (   0.3000000  -0.0577350  -0.2571429), wk =   0.0160000
        k(   67) = (   0.3000000  -0.2886751   0.0000000), wk =   0.0080000
        k(   68) = (   0.4000000  -0.1154701   0.0000000), wk =   0.0080000
        k(   69) = (   0.3000000  -0.2886751   0.1285714), wk =   0.0160000
        k(   70) = (   0.4000000  -0.1154701  -0.1285714), wk =   0.0160000
        k(   71) = (   0.3000000  -0.2886751   0.2571429), wk =   0.0160000
        k(   72) = (   0.4000000  -0.1154701  -0.2571429), wk =   0.0160000
        k(   73) = (   0.4000000  -0.3464102   0.0000000), wk =   0.0080000
        k(   74) = (   0.5000000  -0.1732051   0.0000000), wk =   0.0080000
        k(   75) = (   0.4000000  -0.3464102   0.1285714), wk =   0.0160000
        k(   76) = (   0.5000000  -0.1732051  -0.1285714), wk =   0.0160000
        k(   77) = (   0.4000000  -0.3464102   0.2571429), wk =   0.0160000
        k(   78) = (   0.5000000  -0.1732051  -0.2571429), wk =   0.0160000
        k(   79) = (   0.4000000  -0.0000000   0.0000000), wk =   0.0040000
        k(   80) = (   0.4000000  -0.0000000  -0.1285714), wk =   0.0080000
        k(   81) = (   0.4000000  -0.0000000  -0.2571429), wk =   0.0080000
        k(   82) = (   0.3000000  -0.4041452   0.0000000), wk =   0.0080000
        k(   83) = (   0.5000000  -0.0577350   0.0000000), wk =   0.0080000
        k(   84) = (   0.3000000  -0.4041452   0.1285714), wk =   0.0160000
        k(   85) = (   0.5000000  -0.0577350  -0.1285714), wk =   0.0160000
        k(   86) = (   0.3000000  -0.4041452   0.2571429), wk =   0.0160000
        k(   87) = (   0.5000000  -0.0577350  -0.2571429), wk =   0.0160000
        k(   88) = (   0.4000000  -0.4618802   0.0000000), wk =   0.0080000
        k(   89) = (   0.4000000  -0.4618802   0.1285714), wk =   0.0160000
        k(   90) = (   0.4000000  -0.4618802   0.2571429), wk =   0.0160000
        k(   91) = (   0.6000000   0.0000000   0.0000000), wk =   0.0040000
        k(   92) = (   0.6000000   0.0000000  -0.1285714), wk =   0.0080000
        k(   93) = (   0.6000000   0.0000000  -0.2571429), wk =   0.0080000

     Dense  grid:    15649 G-vectors     FFT dimensions: (  30,  30,  45)

     Smooth grid:     3969 G-vectors     FFT dimensions: (  18,  18,  27)

     Estimated max dynamical RAM per process >      43.40 MB

     Estimated total dynamical RAM >      86.80 MB

     Check: negative core charge=   -0.000008
     Generating pointlists ...
     new r_m :   0.3996 (alat units)  2.0387 (a.u.) for type    1

     Initial potential from superposition of free atoms

     starting charge      15.9987, renormalised to      16.0000
     Starting wfcs are   12 randomized atomic wfcs

     total cpu time spent up to now is        1.0 secs

     Self-consistent Calculation

     iteration #  1     ecut=    30.00 Ry     beta= 0.50
     Davidson diagonalization with overlap
     ethr =  1.00E-02,  avg # of iterations =  4.0

     total cpu time spent up to now is        2.6 secs

     total energy              =    -111.34323559 Ry
     estimated scf accuracy    <       0.56924906 Ry

     total magnetization       =     6.83 Bohr mag/cell
     absolute magnetization    =     6.83 Bohr mag/cell

     iteration #  2     ecut=    30.00 Ry     beta= 0.50
     Davidson diagonalization with overlap
     ethr =  3.56E-03,  avg # of iterations =  2.1

     total cpu time spent up to now is        4.1 secs

     total energy              =    -111.52785388 Ry
     estimated scf accuracy    <       0.06098998 Ry

     total magnetization       =     6.12 Bohr mag/cell
     absolute magnetization    =     6.14 Bohr mag/cell

     iteration #  3     ecut=    30.00 Ry     beta= 0.50
     Davidson diagonalization with overlap
     ethr =  3.81E-04,  avg # of iterations =  1.7

     total cpu time spent up to now is        5.1 secs

     total energy              =    -111.56067939 Ry
     estimated scf accuracy    <       0.01130142 Ry

     total magnetization       =     5.97 Bohr mag/cell
     absolute magnetization    =     6.04 Bohr mag/cell

     iteration #  4     ecut=    30.00 Ry     beta= 0.50
     Davidson diagonalization with overlap
     ethr =  7.06E-05,  avg # of iterations =  2.8

     total cpu time spent up to now is        6.3 secs

     total energy              =    -111.56847759 Ry
     estimated scf accuracy    <       0.01950988 Ry

     total magnetization       =     5.53 Bohr mag/cell
     absolute magnetization    =     5.77 Bohr mag/cell

     iteration #  5     ecut=    30.00 Ry     beta= 0.50
     Davidson diagonalization with overlap
     ethr =  7.06E-05,  avg # of iterations =  1.1

     total cpu time spent up to now is        7.2 secs

     total energy              =    -111.56928717 Ry
     estimated scf accuracy    <       0.00196683 Ry

     total magnetization       =     5.52 Bohr mag/cell
     absolute magnetization    =     5.77 Bohr mag/cell

     iteration #  6     ecut=    30.00 Ry     beta= 0.50
     Davidson diagonalization with overlap
     ethr =  1.23E-05,  avg # of iterations =  1.7

     total cpu time spent up to now is        8.5 secs

     total energy              =    -111.56957665 Ry
     estimated scf accuracy    <       0.00025235 Ry

     total magnetization       =     5.49 Bohr mag/cell
     absolute magnetization    =     5.76 Bohr mag/cell

     iteration #  7     ecut=    30.00 Ry     beta= 0.50
     Davidson diagonalization with overlap
     ethr =  1.58E-06,  avg # of iterations =  2.9

     total cpu time spent up to now is        9.7 secs

     total energy              =    -111.56964070 Ry
     estimated scf accuracy    <       0.00005501 Ry

     total magnetization       =     5.48 Bohr mag/cell
     absolute magnetization    =     5.76 Bohr mag/cell

     iteration #  8     ecut=    30.00 Ry     beta= 0.50
     Davidson diagonalization with overlap
     ethr =  3.44E-07,  avg # of iterations =  4.4

     total cpu time spent up to now is       11.2 secs

     total energy              =    -111.56967936 Ry
     estimated scf accuracy    <       0.00001761 Ry

     total magnetization       =     5.47 Bohr mag/cell
     absolute magnetization    =     5.76 Bohr mag/cell

     iteration #  9     ecut=    30.00 Ry     beta= 0.50
     Davidson diagonalization with overlap
     ethr =  1.10E-07,  avg # of iterations =  3.2

     total cpu time spent up to now is       12.4 secs

     total energy              =    -111.56968599 Ry
     estimated scf accuracy    <       0.00000066 Ry

     total magnetization       =     5.48 Bohr mag/cell
     absolute magnetization    =     5.76 Bohr mag/cell

     iteration # 10     ecut=    30.00 Ry     beta= 0.50
     Davidson diagonalization with overlap
     ethr =  4.14E-09,  avg # of iterations =  8.4

     total cpu time spent up to now is       15.3 secs

     total energy              =    -111.56968834 Ry
     estimated scf accuracy    <       0.00000018 Ry

     total magnetization       =     5.48 Bohr mag/cell
     absolute magnetization    =     5.76 Bohr mag/cell

     iteration # 11     ecut=    30.00 Ry     beta= 0.50
     Davidson diagonalization with overlap
     ethr =  1.14E-09,  avg # of iterations =  4.7

     total cpu time spent up to now is       16.9 secs

     total energy              =    -111.56968848 Ry
     estimated scf accuracy    <       0.00000039 Ry

     total magnetization       =     5.48 Bohr mag/cell
     absolute magnetization    =     5.76 Bohr mag/cell

     iteration # 12     ecut=    30.00 Ry     beta= 0.50
     Davidson diagonalization with overlap
     ethr =  1.14E-09,  avg # of iterations =  2.5

     Magnetic moment per site  (integrated on atomic sphere of radius R)
     atom   1 (R=0.400)  charge=  6.6273  magn=  2.7984
     atom   2 (R=0.400)  charge=  6.6266  magn=  2.7984

     total cpu time spent up to now is       18.1 secs

     End of self-consistent calculation

     Number of k-points >= 100: set verbosity='high' to print the bands.

     the Fermi energy is    11.5985 ev

!    total energy              =    -111.56968855 Ry
     estimated scf accuracy    <          5.2E-09 Ry
     smearing contrib. (-TS)   =      -0.00006871 Ry
     internal energy E=F+TS    =    -111.56961984 Ry

     The total energy is F=E-TS. E is the sum of the following terms:
     one-electron contribution =       9.09685962 Ry
     hartree contribution      =      14.79369591 Ry
     xc contribution           =     -52.83181132 Ry
     ewald contribution        =     -82.62836405 Ry

     total magnetization       =     5.48 Bohr mag/cell
     absolute magnetization    =     5.76 Bohr mag/cell

     convergence has been achieved in  12 iterations

     Forces acting on atoms (cartesian axes, Ry/au):

     atom    1 type  1   force =     0.00000000   -0.00000093    0.00000000
     atom    2 type  1   force =     0.00000000    0.00000093    0.00000000

     Total force =     0.000001     Total SCF correction =     0.000002
     SCF correction compared to forces is large: reduce conv_thr to get better values


     Computing stress (Cartesian axis) and pressure

          total   stress  (Ry/bohr**3)                   (kbar)     P=     -108.29
  -0.00100240   0.00000000   0.00000000         -147.46        0.00        0.00
   0.00000000  -0.00100240   0.00000000            0.00     -147.46        0.00
   0.00000000   0.00000000  -0.00020356            0.00        0.00      -29.94


     BFGS Geometry Optimization
     Energy error            =      9.6E-03 Ry
     Gradient error          =      9.3E-07 Ry/Bohr
     Cell gradient error     =      1.5E+02 kbar

     number of scf cycles    =   1
     number of bfgs steps    =   0

     enthalpy           new  =    -111.5696885502 Ry

     new trust radius        =       0.0670446967 bohr
     new conv_thr            =       0.0000001000 Ry

     new unit-cell volume =    169.21703 a.u.^3 (    25.07538 Ang^3 )
     density =      7.39632 g/cm^3

CELL_PARAMETERS (angstrom)
   2.632338045   0.000000000   0.000000000
  -1.316169023   2.279671398   0.000000000
   0.000000000   0.000000000   4.178626531

ATOMIC_POSITIONS (angstrom)
Fe               0.0000000000       -0.0000004800        0.0000000000
Fe               0.0000000000        1.5197855783        2.0893132657


     Message from routine punch:
     Nothing written, as per user request (disk_io='none')
     NEW-OLD atomic charge density approx. for the potential
     New effective cutoffs (rho, wfc):  315.47   31.55

     Check: negative core charge=   -0.000005
     Generating pointlists ...
     new r_m :   0.3947 (alat units)  2.0139 (a.u.) for type    1

     total cpu time spent up to now is       19.0 secs

     Self-consistent Calculation

     iteration #  1     ecut=    30.00 Ry     beta= 0.50
     Davidson diagonalization with overlap
     ethr =  1.00E-06,  avg # of iterations =  6.5

     total cpu time spent up to now is       21.3 secs

     total energy              =    -111.57633192 Ry
     estimated scf accuracy    <       0.00037995 Ry

     total magnetization       =     5.44 Bohr mag/cell
     absolute magnetization    =     5.70 Bohr mag/cell

     iteration #  2     ecut=    30.00 Ry     beta= 0.50
     Davidson diagonalization with overlap
     ethr =  2.37E-06,  avg # of iterations =  1.1

     total cpu time spent up to now is       22.3 secs

     total energy              =    -111.57640309 Ry
     estimated scf accuracy    <       0.00013562 Ry

     total magnetization       =     5.44 Bohr mag/cell
     absolute magnetization    =     5.69 Bohr mag/cell

     iteration #  3     ecut=    30.00 Ry     beta= 0.50
     Davidson diagonalization with overlap
     ethr =  8.48E-07,  avg # of iterations =  2.1

     total cpu time spent up to now is       23.6 secs

     total energy              =    -111.57630247 Ry
     estimated scf accuracy    <       0.00242704 Ry

     total magnetization       =     5.44 Bohr mag/cell
     absolute magnetization    =     5.68 Bohr mag/cell

     iteration #  4     ecut=    30.00 Ry     beta= 0.50
     Davidson diagonalization with overlap
     ethr =  8.48E-07,  avg # of iterations =  1.7

     total cpu time spent up to now is       24.6 secs

     total energy              =    -111.57645761 Ry
     estimated scf accuracy    <       0.00004353 Ry

     total magnetization       =     5.43 Bohr mag/cell
     absolute magnetization    =     5.68 Bohr mag/cell

     iteration #  5     ecut=    30.00 Ry     beta= 0.50
     Davidson diagonalization with overlap
     ethr =  2.72E-07,  avg # of iterations =  1.6

     total cpu time spent up to now is       25.6 secs

     total energy              =    -111.57646677 Ry
     estimated scf accuracy    <       0.00000341 Ry

     total magnetization       =     5.43 Bohr mag/cell
     absolute magnetization    =     5.68 Bohr mag/cell

     iteration #  6     ecut=    30.00 Ry     beta= 0.50
     Davidson diagonalization with overlap
     ethr =  2.13E-08,  avg # of iterations =  3.7

     total cpu time spent up to now is       26.9 secs

     total energy              =    -111.57646957 Ry
     estimated scf accuracy    <       0.00000035 Ry

     total magnetization       =     5.43 Bohr mag/cell
     absolute magnetization    =     5.67 Bohr mag/cell

     iteration #  7     ecut=    30.00 Ry     beta= 0.50
     Davidson diagonalization with overlap
     ethr =  2.18E-09,  avg # of iterations =  4.7

     Magnetic moment per site  (integrated on atomic sphere of radius R)
     atom   1 (R=0.395)  charge=  6.6264  magn=  2.7623
     atom   2 (R=0.395)  charge=  6.6258  magn=  2.7624

     total cpu time spent up to now is       28.7 secs

     End of self-consistent calculation

     Number of k-points >= 100: set verbosity='high' to print the bands.

     the Fermi energy is    12.3834 ev

!    total energy              =    -111.57647013 Ry
     estimated scf accuracy    <       0.00000006 Ry
     smearing contrib. (-TS)   =       0.00002600 Ry
     internal energy E=F+TS    =    -111.57649613 Ry

     The total energy is F=E-TS. E is the sum of the following terms:
     one-electron contribution =      11.35045212 Ry
     hartree contribution      =      14.16148264 Ry
     xc contribution           =     -52.88917761 Ry
     ewald contribution        =     -84.19925327 Ry

     total magnetization       =     5.43 Bohr mag/cell
     absolute magnetization    =     5.67 Bohr mag/cell

     convergence has been achieved in   7 iterations

     Forces acting on atoms (cartesian axes, Ry/au):

     atom    1 type  1   force =     0.00000000   -0.00000040    0.00000000
     atom    2 type  1   force =     0.00000000    0.00000040    0.00000000

     Total force =     0.000001     Total SCF correction =     0.000000
     SCF correction compared to forces is large: reduce conv_thr to get better values


     Computing stress (Cartesian axis) and pressure

          total   stress  (Ry/bohr**3)                   (kbar)     P=      -37.11
  -0.00051616   0.00000000   0.00000000          -75.93        0.00        0.00
   0.00000000  -0.00051618   0.00000000            0.00      -75.93        0.00
   0.00000000   0.00000000   0.00027560            0.00        0.00       40.54

     Energy error            =      6.8E-03 Ry
     Gradient error          =      4.0E-07 Ry/Bohr
     Cell gradient error     =      7.6E+01 kbar

     number of scf cycles    =   2
     number of bfgs steps    =   1

     enthalpy           old  =    -111.5696885502 Ry
     enthalpy           new  =    -111.5764701304 Ry

     CASE: enthalpy          _new < enthalpy          _old

     new trust radius        =       0.0769155579 bohr
     new conv_thr            =       0.0000000010 Ry

     new unit-cell volume =    161.13560 a.u.^3 (    23.87783 Ang^3 )
     density =      7.76727 g/cm^3

CELL_PARAMETERS (angstrom)
   2.554517795   0.000000000   0.000000000
  -1.277258898   2.212275353   0.000000000
   0.000000000   0.000000000   4.225195335

ATOMIC_POSITIONS (angstrom)
Fe               0.0000000000       -0.0000009277        0.0000000000
Fe               0.0000000000        1.4748552058        2.1125976677


     Message from routine punch:
     Nothing written, as per user request (disk_io='none')
     NEW-OLD atomic charge density approx. for the potential
     New effective cutoffs (rho, wfc):  334.93   33.50

     Check: negative core charge=   -0.000002
     Generating pointlists ...
     new r_m :   0.3903 (alat units)  1.9913 (a.u.) for type    1

     total cpu time spent up to now is       29.4 secs

     Self-consistent Calculation

     iteration #  1     ecut=    30.00 Ry     beta= 0.50
     Davidson diagonalization with overlap
     ethr =  1.00E-06,  avg # of iterations =  7.4

     total cpu time spent up to now is       31.9 secs

     total energy              =    -111.57904352 Ry
     estimated scf accuracy    <       0.00069720 Ry

     total magnetization       =     5.40 Bohr mag/cell
     absolute magnetization    =     5.62 Bohr mag/cell

     iteration #  2     ecut=    30.00 Ry     beta= 0.50
     Davidson diagonalization with overlap
     ethr =  4.36E-06,  avg # of iterations =  1.0

     total cpu time spent up to now is       32.9 secs

     total energy              =    -111.57912320 Ry
     estimated scf accuracy    <       0.00027604 Ry

     total magnetization       =     5.40 Bohr mag/cell
     absolute magnetization    =     5.61 Bohr mag/cell

     iteration #  3     ecut=    30.00 Ry     beta= 0.50
     Davidson diagonalization with overlap
     ethr =  1.73E-06,  avg # of iterations =  2.1

     total cpu time spent up to now is       34.3 secs

     total energy              =    -111.57892600 Ry
     estimated scf accuracy    <       0.00504799 Ry

     total magnetization       =     5.40 Bohr mag/cell
     absolute magnetization    =     5.60 Bohr mag/cell

     iteration #  4     ecut=    30.00 Ry     beta= 0.50
     Davidson diagonalization with overlap
     ethr =  1.73E-06,  avg # of iterations =  1.8

     total cpu time spent up to now is       35.3 secs

     total energy              =    -111.57925517 Ry
     estimated scf accuracy    <       0.00005315 Ry

     total magnetization       =     5.39 Bohr mag/cell
     absolute magnetization    =     5.60 Bohr mag/cell

     iteration #  5     ecut=    30.00 Ry     beta= 0.50
     Davidson diagonalization with overlap
     ethr =  3.32E-07,  avg # of iterations =  2.0

     total cpu time spent up to now is       36.4 secs

     total energy              =    -111.57927083 Ry
     estimated scf accuracy    <       0.00000725 Ry

     total magnetization       =     5.39 Bohr mag/cell
     absolute magnetization    =     5.59 Bohr mag/cell

     iteration #  6     ecut=    30.00 Ry     beta= 0.50
     Davidson diagonalization with overlap
     ethr =  4.53E-08,  avg # of iterations =  3.0

     total cpu time spent up to now is       37.6 secs

     total energy              =    -111.57927582 Ry
     estimated scf accuracy    <       0.00000067 Ry

     total magnetization       =     5.39 Bohr mag/cell
     absolute magnetization    =     5.59 Bohr mag/cell

     iteration #  7     ecut=    30.00 Ry     beta= 0.50
     Davidson diagonalization with overlap
     ethr =  4.20E-09,  avg # of iterations =  4.9

     total cpu time spent up to now is       39.5 secs

     total energy              =    -111.57927656 Ry
     estimated scf accuracy    <       0.00000016 Ry

     total magnetization       =     5.39 Bohr mag/cell
     absolute magnetization    =     5.59 Bohr mag/cell

     iteration #  8     ecut=    30.00 Ry     beta= 0.50
     Davidson diagonalization with overlap
     ethr =  1.02E-09,  avg # of iterations =  3.3

     total cpu time spent up to now is       40.7 secs

     total energy              =    -111.57927666 Ry
     estimated scf accuracy    <       0.00000004 Ry

     total magnetization       =     5.39 Bohr mag/cell
     absolute magnetization    =     5.59 Bohr mag/cell

     iteration #  9     ecut=    30.00 Ry     beta= 0.50
     Davidson diagonalization with overlap
     ethr =  2.65E-10,  avg # of iterations =  3.9

     total cpu time spent up to now is       42.0 secs

     total energy              =    -111.57927668 Ry
     estimated scf accuracy    <          1.5E-09 Ry

     total magnetization       =     5.39 Bohr mag/cell
     absolute magnetization    =     5.59 Bohr mag/cell

     iteration # 10     ecut=    30.00 Ry     beta= 0.50
     Davidson diagonalization with overlap
     ethr =  9.24E-12,  avg # of iterations =  7.0

     Magnetic moment per site  (integrated on atomic sphere of radius R)
     atom   1 (R=0.390)  charge=  6.6246  magn=  2.7287
     atom   2 (R=0.390)  charge=  6.6236  magn=  2.7286

     total cpu time spent up to now is       44.4 secs

     End of self-consistent calculation

     Number of k-points >= 100: set verbosity='high' to print the bands.

     the Fermi energy is    13.0747 ev

!    total energy              =    -111.57927668 Ry
     estimated scf accuracy    <          2.6E-10 Ry
     smearing contrib. (-TS)   =       0.00007868 Ry
     internal energy E=F+TS    =    -111.57935537 Ry

     The total energy is F=E-TS. E is the sum of the following terms:
     one-electron contribution =      13.33519509 Ry
     hartree contribution      =      13.62560474 Ry
     xc contribution           =     -52.94727924 Ry
     ewald contribution        =     -85.59287595 Ry

     total magnetization       =     5.39 Bohr mag/cell
     absolute magnetization    =     5.59 Bohr mag/cell

     convergence has been achieved in  10 iterations

     Forces acting on atoms (cartesian axes, Ry/au):

     atom    1 type  1   force =     0.00000000   -0.00000058    0.00000000
     atom    2 type  1   force =    -0.00000000    0.00000058    0.00000000

     Total force =     0.000001     Total SCF correction =     0.000000


     Computing stress (Cartesian axis) and pressure

          total   stress  (Ry/bohr**3)                   (kbar)     P=       48.62
   0.00015679  -0.00000000   0.00000000           23.07       -0.00        0.00
   0.00000000   0.00015677  -0.00000000            0.00       23.06       -0.00
   0.00000000  -0.00000000   0.00067803            0.00       -0.00       99.74

     Energy error            =      2.8E-03 Ry
     Gradient error          =      5.8E-07 Ry/Bohr
     Cell gradient error     =      1.0E+02 kbar

     number of scf cycles    =   3
     number of bfgs steps    =   2

     enthalpy           old  =    -111.5764701304 Ry
     enthalpy           new  =    -111.5792766847 Ry

     CASE: enthalpy          _new < enthalpy          _old

     new trust radius        =       0.0352267645 bohr
     new conv_thr            =       0.0000000010 Ry

     new unit-cell volume =    162.59041 a.u.^3 (    24.09341 Ang^3 )
     density =      7.69777 g/cm^3

CELL_PARAMETERS (angstrom)
   2.548405214   0.000000000   0.000000000
  -1.274202607   2.206980208  -0.000000000
   0.000000000  -0.000000000   4.283821813

ATOMIC_POSITIONS (angstrom)
Fe               0.0000000000       -0.0000012862        0.0000000000
Fe               0.0000000000        1.4713254579        2.1419109064


     Message from routine punch:
     Nothing written, as per user request (disk_io='none')
     NEW-OLD atomic charge density approx. for the potential
     New effective cutoffs (rho, wfc):  336.52   33.66

     Check: negative core charge=   -0.000003
     Generating pointlists ...

     total cpu time spent up to now is       45.1 secs

     Self-consistent Calculation

     iteration #  1     ecut=    30.00 Ry     beta= 0.50
     Davidson diagonalization with overlap
     ethr =  1.00E-06,  avg # of iterations =  5.4

     total cpu time spent up to now is       47.0 secs

     total energy              =    -111.58038280 Ry
     estimated scf accuracy    <       0.00006624 Ry

     total magnetization       =     5.40 Bohr mag/cell
     absolute magnetization    =     5.60 Bohr mag/cell

     iteration #  2     ecut=    30.00 Ry     beta= 0.50
     Davidson diagonalization with overlap
     ethr =  4.14E-07,  avg # of iterations =  1.3

     total cpu time spent up to now is       48.0 secs

     total energy              =    -111.58039780 Ry
     estimated scf accuracy    <       0.00002225 Ry

     total magnetization       =     5.41 Bohr mag/cell
     absolute magnetization    =     5.60 Bohr mag/cell

     iteration #  3     ecut=    30.00 Ry     beta= 0.50
     Davidson diagonalization with overlap
     ethr =  1.39E-07,  avg # of iterations =  2.1

     total cpu time spent up to now is       49.4 secs

     total energy              =    -111.58038461 Ry
     estimated scf accuracy    <       0.00031923 Ry

     total magnetization       =     5.41 Bohr mag/cell
     absolute magnetization    =     5.61 Bohr mag/cell

     iteration #  4     ecut=    30.00 Ry     beta= 0.50
     Davidson diagonalization with overlap
     ethr =  1.39E-07,  avg # of iterations =  1.6

     total cpu time spent up to now is       50.5 secs

     total energy              =    -111.58040636 Ry
     estimated scf accuracy    <       0.00000547 Ry

     total magnetization       =     5.41 Bohr mag/cell
     absolute magnetization    =     5.61 Bohr mag/cell

     iteration #  5     ecut=    30.00 Ry     beta= 0.50
     Davidson diagonalization with overlap
     ethr =  3.42E-08,  avg # of iterations =  1.5

     total cpu time spent up to now is       51.4 secs

     total energy              =    -111.58040763 Ry
     estimated scf accuracy    <       0.00000059 Ry

     total magnetization       =     5.41 Bohr mag/cell
     absolute magnetization    =     5.61 Bohr mag/cell

     iteration #  6     ecut=    30.00 Ry     beta= 0.50
     Davidson diagonalization with overlap
     ethr =  3.69E-09,  avg # of iterations =  3.1

     total cpu time spent up to now is       52.7 secs

     total energy              =    -111.58040804 Ry
     estimated scf accuracy    <       0.00000004 Ry

     total magnetization       =     5.41 Bohr mag/cell
     absolute magnetization    =     5.61 Bohr mag/cell

     iteration #  7     ecut=    30.00 Ry     beta= 0.50
     Davidson diagonalization with overlap
     ethr =  2.51E-10,  avg # of iterations =  5.8

     total cpu time spent up to now is       54.8 secs

     total energy              =    -111.58040813 Ry
     estimated scf accuracy    <          7.9E-09 Ry

     total magnetization       =     5.41 Bohr mag/cell
     absolute magnetization    =     5.61 Bohr mag/cell

     iteration #  8     ecut=    30.00 Ry     beta= 0.50
     Davidson diagonalization with overlap
     ethr =  4.91E-11,  avg # of iterations =  3.8

     Magnetic moment per site  (integrated on atomic sphere of radius R)
     atom   1 (R=0.390)  charge=  6.6137  magn=  2.7386
     atom   2 (R=0.390)  charge=  6.6131  magn=  2.7385

     total cpu time spent up to now is       56.2 secs

     End of self-consistent calculation

     Number of k-points >= 100: set verbosity='high' to print the bands.

     the Fermi energy is    12.9193 ev

!    total energy              =    -111.58040813 Ry
     estimated scf accuracy    <          6.5E-10 Ry
     smearing contrib. (-TS)   =      -0.00001098 Ry
     internal energy E=F+TS    =    -111.58039716 Ry

     The total energy is F=E-TS. E is the sum of the following terms:
     one-electron contribution =      12.95934621 Ry
     hartree contribution      =      13.72726688 Ry
     xc contribution           =     -52.93796079 Ry
     ewald contribution        =     -85.32904946 Ry

     total magnetization       =     5.41 Bohr mag/cell
     absolute magnetization    =     5.61 Bohr mag/cell

     convergence has been achieved in   8 iterations

     Forces acting on atoms (cartesian axes, Ry/au):

     atom    1 type  1   force =     0.00000000   -0.00000064   -0.00000000
     atom    2 type  1   force =    -0.00000000    0.00000064    0.00000000

     Total force =     0.000001     Total SCF correction =     0.000000


     Computing stress (Cartesian axis) and pressure

          total   stress  (Ry/bohr**3)                   (kbar)     P=       33.34
   0.00012370  -0.00000000  -0.00000000           18.20       -0.00       -0.00
   0.00000000   0.00012367   0.00000000            0.00       18.19        0.00
  -0.00000000   0.00000000   0.00043262           -0.00        0.00       63.64

     Energy error            =      1.1E-03 Ry
     Gradient error          =      6.4E-07 Ry/Bohr
     Cell gradient error     =      6.4E+01 kbar

     number of scf cycles    =   4
     number of bfgs steps    =   3

     enthalpy           old  =    -111.5792766847 Ry
     enthalpy           new  =    -111.5804081329 Ry

     CASE: enthalpy          _new < enthalpy          _old

     new trust radius        =       0.0523517396 bohr
     new conv_thr            =       0.0000000010 Ry

     new unit-cell volume =    165.76092 a.u.^3 (    24.56323 Ang^3 )
     density =      7.55054 g/cm^3

CELL_PARAMETERS (angstrom)
   2.547123246   0.000000000   0.000000000
  -1.273561623   2.205866030  -0.000000000
   0.000000000  -0.000000000   4.371761529

ATOMIC_POSITIONS (angstrom)
Fe              -0.0000000000       -0.0000021359        0.0000000000
Fe               0.0000000000        1.4705835208        2.1858807644


     Message from routine punch:
     Nothing written, as per user request (disk_io='none')
     NEW-OLD atomic charge density approx. for the potential
     New effective cutoffs (rho, wfc):  336.83   33.69

     Check: negative core charge=   -0.000003
     Generating pointlists ...

     total cpu time spent up to now is       56.9 secs

     Self-consistent Calculation

     iteration #  1     ecut=    30.00 Ry     beta= 0.50
     Davidson diagonalization with overlap
     ethr =  1.00E-06,  avg # of iterations =  5.9

     total cpu time spent up to now is       59.1 secs

     total energy              =    -111.58110964 Ry
     estimated scf accuracy    <       0.00012392 Ry

     total magnetization       =     5.44 Bohr mag/cell
     absolute magnetization    =     5.64 Bohr mag/cell

     iteration #  2     ecut=    30.00 Ry     beta= 0.50
     Davidson diagonalization with overlap
     ethr =  7.75E-07,  avg # of iterations =  1.1

     total cpu time spent up to now is       60.3 secs

     total energy              =    -111.58114124 Ry
     estimated scf accuracy    <       0.00004078 Ry

     total magnetization       =     5.45 Bohr mag/cell
     absolute magnetization    =     5.64 Bohr mag/cell

     iteration #  3     ecut=    30.00 Ry     beta= 0.50
     Davidson diagonalization with overlap
     ethr =  2.55E-07,  avg # of iterations =  2.1

     total cpu time spent up to now is       61.4 secs

     total energy              =    -111.58112798 Ry
     estimated scf accuracy    <       0.00032341 Ry

     total magnetization       =     5.45 Bohr mag/cell
     absolute magnetization    =     5.65 Bohr mag/cell

     iteration #  4     ecut=    30.00 Ry     beta= 0.50
     Davidson diagonalization with overlap
     ethr =  2.55E-07,  avg # of iterations =  1.2

     total cpu time spent up to now is       62.4 secs

     total energy              =    -111.58115287 Ry
     estimated scf accuracy    <       0.00001576 Ry

     total magnetization       =     5.45 Bohr mag/cell
     absolute magnetization    =     5.65 Bohr mag/cell

     iteration #  5     ecut=    30.00 Ry     beta= 0.50
     Davidson diagonalization with overlap
     ethr =  9.85E-08,  avg # of iterations =  1.2

     total cpu time spent up to now is       63.4 secs

     total energy              =    -111.58115509 Ry
     estimated scf accuracy    <       0.00000086 Ry

     total magnetization       =     5.45 Bohr mag/cell
     absolute magnetization    =     5.65 Bohr mag/cell

     iteration #  6     ecut=    30.00 Ry     beta= 0.50
     Davidson diagonalization with overlap
     ethr =  5.36E-09,  avg # of iterations =  3.7

     total cpu time spent up to now is       64.8 secs

     total energy              =    -111.58115570 Ry
     estimated scf accuracy    <       0.00000006 Ry

     total magnetization       =     5.45 Bohr mag/cell
     absolute magnetization    =     5.66 Bohr mag/cell

     iteration #  7     ecut=    30.00 Ry     beta= 0.50
     Davidson diagonalization with overlap
     ethr =  3.83E-10,  avg # of iterations =  5.7

     total cpu time spent up to now is       66.9 secs

     total energy              =    -111.58115582 Ry
     estimated scf accuracy    <          5.6E-09 Ry

     total magnetization       =     5.45 Bohr mag/cell
     absolute magnetization    =     5.66 Bohr mag/cell

     iteration #  8     ecut=    30.00 Ry     beta= 0.50
     Davidson diagonalization with overlap
     ethr =  3.49E-11,  avg # of iterations =  4.9

     Magnetic moment per site  (integrated on atomic sphere of radius R)
     atom   1 (R=0.390)  charge=  6.5907  magn=  2.7616
     atom   2 (R=0.390)  charge=  6.5909  magn=  2.7617

     total cpu time spent up to now is       68.4 secs

     End of self-consistent calculation

     Number of k-points >= 100: set verbosity='high' to print the bands.

     the Fermi energy is    12.6063 ev

!    total energy              =    -111.58115583 Ry
     estimated scf accuracy    <          5.9E-10 Ry
     smearing contrib. (-TS)   =      -0.00016081 Ry
     internal energy E=F+TS    =    -111.58099502 Ry

     The total energy is F=E-TS. E is the sum of the following terms:
     one-electron contribution =      12.14809678 Ry
     hartree contribution      =      13.95162173 Ry
     xc contribution           =     -52.91932600 Ry
     ewald contribution        =     -84.76138752 Ry

     total magnetization       =     5.45 Bohr mag/cell
     absolute magnetization    =     5.66 Bohr mag/cell

     convergence has been achieved in   8 iterations

     Forces acting on atoms (cartesian axes, Ry/au):

     atom    1 type  1   force =     0.00000000   -0.00000082   -0.00000000
     atom    2 type  1   force =    -0.00000000    0.00000082    0.00000000

     Total force =     0.000001     Total SCF correction =     0.000000


     Computing stress (Cartesian axis) and pressure

          total   stress  (Ry/bohr**3)                   (kbar)     P=        3.58
   0.00002154  -0.00000000  -0.00000000            3.17       -0.00       -0.00
  -0.00000000   0.00002151   0.00000000           -0.00        3.16        0.00
   0.00000000  -0.00000000   0.00003000            0.00       -0.00        4.41

     Energy error            =      7.5E-04 Ry
     Gradient error          =      8.2E-07 Ry/Bohr
     Cell gradient error     =      4.4E+00 kbar

     number of scf cycles    =   5
     number of bfgs steps    =   4

     enthalpy           old  =    -111.5804081329 Ry
     enthalpy           new  =    -111.5811558313 Ry

     CASE: enthalpy          _new < enthalpy          _old

     new trust radius        =       0.0028012501 bohr
     new conv_thr            =       0.0000000010 Ry

     new unit-cell volume =    166.17959 a.u.^3 (    24.62527 Ang^3 )
     density =      7.53151 g/cm^3

CELL_PARAMETERS (angstrom)
   2.548952853   0.000000000   0.000000000
  -1.274476426   2.207448690  -0.000000000
   0.000000000  -0.000000000   4.376517479

ATOMIC_POSITIONS (angstrom)
Fe              -0.0000000000       -0.0000025791        0.0000000000
Fe               0.0000000000        1.4716390734        2.1882587394


     Message from routine punch:
     Nothing written, as per user request (disk_io='none')
     NEW-OLD atomic charge density approx. for the potential
     New effective cutoffs (rho, wfc):  336.35   33.65

     Check: negative core charge=   -0.000003
     Generating pointlists ...

     total cpu time spent up to now is       69.2 secs

     Self-consistent Calculation

     iteration #  1     ecut=    30.00 Ry     beta= 0.50
     Davidson diagonalization with overlap
     ethr =  1.00E-06,  avg # of iterations =  2.5

     Threshold (ethr) on eigenvalues was too large:
     Diagonalizing with lowered threshold

     Davidson diagonalization with overlap
     ethr =  8.00E-09,  avg # of iterations =  2.5

     total cpu time spent up to now is       72.1 secs

     total energy              =    -111.58116045 Ry
     estimated scf accuracy    <       0.00000093 Ry

     total magnetization       =     5.46 Bohr mag/cell
     absolute magnetization    =     5.66 Bohr mag/cell

     iteration #  2     ecut=    30.00 Ry     beta= 0.50
     Davidson diagonalization with overlap
     ethr =  5.79E-09,  avg # of iterations =  1.5

     total cpu time spent up to now is       73.1 secs

     total energy              =    -111.58116041 Ry
     estimated scf accuracy    <       0.00000112 Ry

     total magnetization       =     5.46 Bohr mag/cell
     absolute magnetization    =     5.66 Bohr mag/cell

     iteration #  3     ecut=    30.00 Ry     beta= 0.50
     Davidson diagonalization with overlap
     ethr =  5.79E-09,  avg # of iterations =  1.2

     total cpu time spent up to now is       74.1 secs

     total energy              =    -111.58116048 Ry
     estimated scf accuracy    <       0.00000511 Ry

     total magnetization       =     5.46 Bohr mag/cell
     absolute magnetization    =     5.66 Bohr mag/cell

     iteration #  4     ecut=    30.00 Ry     beta= 0.50
     Davidson diagonalization with overlap
     ethr =  5.79E-09,  avg # of iterations =  1.1

     total cpu time spent up to now is       75.3 secs

     total energy              =    -111.58116084 Ry
     estimated scf accuracy    <       0.00000010 Ry

     total magnetization       =     5.46 Bohr mag/cell
     absolute magnetization    =     5.66 Bohr mag/cell

     iteration #  5     ecut=    30.00 Ry     beta= 0.50
     Davidson diagonalization with overlap
     ethr =  6.14E-10,  avg # of iterations =  2.1

     total cpu time spent up to now is       76.6 secs

     total energy              =    -111.58116087 Ry
     estimated scf accuracy    <          7.8E-09 Ry

     total magnetization       =     5.46 Bohr mag/cell
     absolute magnetization    =     5.66 Bohr mag/cell

     iteration #  6     ecut=    30.00 Ry     beta= 0.50
     Davidson diagonalization with overlap
     ethr =  4.86E-11,  avg # of iterations =  3.3

     total cpu time spent up to now is       78.6 secs

     total energy              =    -111.58116088 Ry
     estimated scf accuracy    <          7.8E-09 Ry

     total magnetization       =     5.46 Bohr mag/cell
     absolute magnetization    =     5.66 Bohr mag/cell

     iteration #  7     ecut=    30.00 Ry     beta= 0.50
     Davidson diagonalization with overlap
     ethr =  4.86E-11,  avg # of iterations =  1.5

     Magnetic moment per site  (integrated on atomic sphere of radius R)
     atom   1 (R=0.390)  charge=  6.5876  magn=  2.7650
     atom   2 (R=0.390)  charge=  6.5878  magn=  2.7650

     total cpu time spent up to now is       80.1 secs

     End of self-consistent calculation

     Number of k-points >= 100: set verbosity='high' to print the bands.

     the Fermi energy is    12.5684 ev

!    total energy              =    -111.58116088 Ry
     estimated scf accuracy    <          3.9E-10 Ry
     smearing contrib. (-TS)   =      -0.00016625 Ry
     internal energy E=F+TS    =    -111.58099463 Ry

     The total energy is F=E-TS. E is the sum of the following terms:
     one-electron contribution =      12.04637210 Ry
     hartree contribution      =      13.97912276 Ry
     xc contribution           =     -52.91680839 Ry
     ewald contribution        =     -84.68968110 Ry

     total magnetization       =     5.46 Bohr mag/cell
     absolute magnetization    =     5.66 Bohr mag/cell

     convergence has been achieved in   7 iterations

     Forces acting on atoms (cartesian axes, Ry/au):

     atom    1 type  1   force =     0.00000000   -0.00000070   -0.00000000
     atom    2 type  1   force =    -0.00000000    0.00000070    0.00000000

     Total force =     0.000001     Total SCF correction =     0.000000


     Computing stress (Cartesian axis) and pressure

          total   stress  (Ry/bohr**3)                   (kbar)     P=        0.03
  -0.00000156   0.00000000  -0.00000000           -0.23        0.00       -0.00
   0.00000000  -0.00000159   0.00000000            0.00       -0.23        0.00
  -0.00000000   0.00000000   0.00000375           -0.00        0.00        0.55

     Energy error            =      5.0E-06 Ry
     Gradient error          =      7.0E-07 Ry/Bohr
     Cell gradient error     =      5.5E-01 kbar

     number of scf cycles    =   6
     number of bfgs steps    =   5

     enthalpy           old  =    -111.5811558313 Ry
     enthalpy           new  =    -111.5811608798 Ry

     CASE: enthalpy          _new < enthalpy          _old

     new trust radius        =       0.0007537653 bohr
     new conv_thr            =       0.0000000010 Ry

     new unit-cell volume =    166.18607 a.u.^3 (    24.62623 Ang^3 )
     density =      7.53122 g/cm^3

CELL_PARAMETERS (angstrom)
   2.548631080   0.000000000   0.000000000
  -1.274315540   2.207168170  -0.000000000
   0.000000000  -0.000000000   4.377796995

ATOMIC_POSITIONS (angstrom)
Fe              -0.0000000000       -0.0000029422        0.0000000000
Fe               0.0000000000        1.4714524224        2.1888984977


     Message from routine punch:
     Nothing written, as per user request (disk_io='none')
     NEW-OLD atomic charge density approx. for the potential
     New effective cutoffs (rho, wfc):  336.43   33.65

     Check: negative core charge=   -0.000003
     Generating pointlists ...

     total cpu time spent up to now is       81.6 secs

     Self-consistent Calculation

     iteration #  1     ecut=    30.00 Ry     beta= 0.50
     Davidson diagonalization with overlap
     ethr =  1.00E-06,  avg # of iterations =  2.0

     Threshold (ethr) on eigenvalues was too large:
     Diagonalizing with lowered threshold

     Davidson diagonalization with overlap
     ethr =  2.47E-10,  avg # of iterations =  3.9

     total cpu time spent up to now is       84.8 secs

     total energy              =    -111.58116095 Ry
     estimated scf accuracy    <       0.00000005 Ry

     total magnetization       =     5.46 Bohr mag/cell
     absolute magnetization    =     5.66 Bohr mag/cell

     iteration #  2     ecut=    30.00 Ry     beta= 0.50
     Davidson diagonalization with overlap
     ethr =  3.11E-10,  avg # of iterations =  2.4

     total cpu time spent up to now is       86.4 secs

     total energy              =    -111.58116090 Ry
     estimated scf accuracy    <       0.00000101 Ry

     total magnetization       =     5.46 Bohr mag/cell
     absolute magnetization    =     5.66 Bohr mag/cell

     iteration #  3     ecut=    30.00 Ry     beta= 0.50
     Davidson diagonalization with overlap
     ethr =  3.11E-10,  avg # of iterations =  1.9

     total cpu time spent up to now is       87.5 secs

     total energy              =    -111.58116097 Ry
     estimated scf accuracy    <       0.00000001 Ry

     total magnetization       =     5.46 Bohr mag/cell
     absolute magnetization    =     5.66 Bohr mag/cell

     iteration #  4     ecut=    30.00 Ry     beta= 0.50
     Davidson diagonalization with overlap
     ethr =  7.94E-11,  avg # of iterations =  1.5

     total cpu time spent up to now is       88.6 secs

     total energy              =    -111.58116097 Ry
     estimated scf accuracy    <          1.6E-09 Ry

     total magnetization       =     5.46 Bohr mag/cell
     absolute magnetization    =     5.66 Bohr mag/cell

     iteration #  5     ecut=    30.00 Ry     beta= 0.50
     Davidson diagonalization with overlap
     ethr =  1.03E-11,  avg # of iterations =  2.0

     Magnetic moment per site  (integrated on atomic sphere of radius R)
     atom   1 (R=0.390)  charge=  6.5876  magn=  2.7650
     atom   2 (R=0.390)  charge=  6.5879  magn=  2.7650

     total cpu time spent up to now is       89.7 secs

     End of self-consistent calculation

     Number of k-points >= 100: set verbosity='high' to print the bands.

     the Fermi energy is    12.5674 ev

!    total energy              =    -111.58116097 Ry
     estimated scf accuracy    <          1.7E-10 Ry
     smearing contrib. (-TS)   =      -0.00016820 Ry
     internal energy E=F+TS    =    -111.58099277 Ry

     The total energy is F=E-TS. E is the sum of the following terms:
     one-electron contribution =      12.04387444 Ry
     hartree contribution      =      13.97997786 Ry
     xc contribution           =     -52.91679577 Ry
     ewald contribution        =     -84.68804929 Ry

     total magnetization       =     5.46 Bohr mag/cell
     absolute magnetization    =     5.66 Bohr mag/cell

     convergence has been achieved in   5 iterations

     Forces acting on atoms (cartesian axes, Ry/au):

     atom    1 type  1   force =     0.00000000   -0.00000059   -0.00000000
     atom    2 type  1   force =    -0.00000000    0.00000059    0.00000000

     Total force =     0.000001     Total SCF correction =     0.000000
     SCF correction compared to forces is large: reduce conv_thr to get better values


     Computing stress (Cartesian axis) and pressure

          total   stress  (Ry/bohr**3)                   (kbar)     P=       -0.14
  -0.00000058   0.00000000  -0.00000000           -0.09        0.00       -0.00
   0.00000000  -0.00000061   0.00000000            0.00       -0.09        0.00
   0.00000000  -0.00000000  -0.00000176            0.00       -0.00       -0.26

     Energy error            =      8.9E-08 Ry
     Gradient error          =      5.9E-07 Ry/Bohr
     Cell gradient error     =      2.6E-01 kbar

     bfgs converged in   7 scf cycles and   6 bfgs steps
     (criteria: energy <  1.0E-04 Ry, force <  1.0E-03 Ry/Bohr, cell <  5.0E-01 kbar)

     End of BFGS Geometry Optimization

     Final enthalpy           =    -111.5811609685 Ry

     File /home/bond/Work/Lab4/1A/Fe_hcp_nk_10_relax/pwscf.bfgs deleted, as requested
Begin final coordinates
     new unit-cell volume =    166.18607 a.u.^3 (    24.62623 Ang^3 )
     density =      7.53122 g/cm^3

CELL_PARAMETERS (angstrom)
   2.548631080   0.000000000   0.000000000
  -1.274315540   2.207168170  -0.000000000
   0.000000000  -0.000000000   4.377796995

ATOMIC_POSITIONS (angstrom)
Fe               0.0000000000       -0.0000029422        0.0000000000
Fe               0.0000000000        1.4714524224        2.1888984977
End final coordinates


     Message from routine punch:
     Nothing written, as per user request (disk_io='none')

     Final scf calculation at the relaxed structure.
     The G-vectors are recalculated for the final unit cell
     Results may differ from those at the preceding step.

     Parallelization info
     --------------------
     sticks:   dense  smooth     PW     G-vecs:    dense   smooth      PW
     Min         237      99     30                 7277     1859     356
     Max         238     100     31                 7282     1860     357
     Sum         475     199     61                14559     3719     713

     Using Slab Decomposition



     bravais-lattice index     =            0
     lattice parameter (alat)  =       5.1023  a.u.
     unit-cell volume          =     166.1861 (a.u.)^3
     number of atoms/cell      =            2
     number of atomic types    =            1
     number of electrons       =        16.00
     number of Kohn-Sham states=           12
     kinetic-energy cutoff     =      30.0000  Ry
     charge density cutoff     =     300.0000  Ry
     scf convergence threshold =      1.0E-09
     mixing beta               =       0.5000
     number of iterations used =            8  plain     mixing
     press convergence thresh. =      5.0E-01
     Exchange-correlation=  SLA  PW   PBE  PBE
                           (   1   4   3   4   0   0   0)

     celldm(1)=   5.102261  celldm(2)=   0.000000  celldm(3)=   0.000000
     celldm(4)=   0.000000  celldm(5)=   0.000000  celldm(6)=   0.000000

     crystal axes: (cart. coord. in units of alat)
               a(1) = (   0.943937   0.000000   0.000000 )  
               a(2) = (  -0.471969   0.817470  -0.000000 )  
               a(3) = (   0.000000  -0.000000   1.621406 )  

     reciprocal axes: (cart. coord. in units 2 pi/alat)
               b(1) = (  1.059392  0.611643  0.000000 )  
               b(2) = ( -0.000000  1.223287  0.000000 )  
               b(3) = ( -0.000000  0.000000  0.616749 )  


     PseudoPot. # 1 for Fe read from file:
     /home/bond/Software/QE/qe-7.4.1/pseudo/Fe.pbe-nd-rrkjus.UPF
     MD5 check sum: 398036227a04b607635f6f5e8dfd8242
     Pseudo is Ultrasoft + core correction, Zval =  8.0
     Generated by new atomic code, or converted to UPF format
     Using radial grid of  957 points,  6 beta functions with: 
                l(1) =   0
                l(2) =   0
                l(3) =   1
                l(4) =   1
                l(5) =   2
                l(6) =   2
     Q(r) pseudized with 0 coefficients 


     atomic species   valence    mass     pseudopotential
     Fe                8.00    55.84500     Fe( 1.00)

     Starting magnetic structure 
     atomic species   magnetization
     Fe              0.420

      4 Sym. Ops. (no inversion) found



   Cartesian axes

     site n.     atom                  positions (alat units)
         1        Fe     tau(   1) = (   0.0000000  -0.0000011   0.0000000  )
         2        Fe     tau(   2) = (   0.0000000   0.5449824   0.8107031  )

     number of k points=    93  Methfessel-Paxton smearing, width (Ry)=  0.0200
                       cart. coord. in units 2pi/alat
        k(    1) = (   0.0000000   0.0000000   0.0000000), wk =   0.0020000
        k(    2) = (  -0.0000000   0.0000000   0.1233497), wk =   0.0040000
        k(    3) = (  -0.0000000   0.0000000   0.2466994), wk =   0.0040000
        k(    4) = (  -0.0000000   0.1223287   0.0000000), wk =   0.0040000
        k(    5) = (  -0.0000000   0.1223287   0.1233497), wk =   0.0080000
        k(    6) = (  -0.0000000   0.1223287   0.2466994), wk =   0.0080000
        k(    7) = (  -0.0000000   0.2446574   0.0000000), wk =   0.0040000
        k(    8) = (  -0.0000000   0.2446574   0.1233497), wk =   0.0080000
        k(    9) = (  -0.0000000   0.2446574   0.2466994), wk =   0.0080000
        k(   10) = (  -0.0000000   0.3669861   0.0000000), wk =   0.0040000
        k(   11) = (  -0.0000000   0.3669861   0.1233497), wk =   0.0080000
        k(   12) = (  -0.0000000   0.3669861   0.2466994), wk =   0.0080000
        k(   13) = (  -0.0000000   0.4893148   0.0000000), wk =   0.0040000
        k(   14) = (  -0.0000000   0.4893148   0.1233497), wk =   0.0080000
        k(   15) = (  -0.0000000   0.4893148   0.2466994), wk =   0.0080000
        k(   16) = (   0.0000000  -0.6116435  -0.0000000), wk =   0.0020000
        k(   17) = (   0.0000000  -0.6116435   0.1233497), wk =   0.0040000
        k(   18) = (   0.0000000  -0.6116435   0.2466994), wk =   0.0040000
        k(   19) = (   0.1059392   0.1834930   0.0000000), wk =   0.0080000
        k(   20) = (   0.1059392   0.1834930   0.1233497), wk =   0.0160000
        k(   21) = (   0.1059392   0.1834930   0.2466994), wk =   0.0160000
        k(   22) = (   0.1059392   0.3058217   0.0000000), wk =   0.0080000
        k(   23) = (   0.1059392   0.3058217   0.1233497), wk =   0.0160000
        k(   24) = (   0.1059392   0.3058217   0.2466994), wk =   0.0160000
        k(   25) = (   0.1059392   0.4281504   0.0000000), wk =   0.0080000
        k(   26) = (   0.1059392   0.4281504   0.1233497), wk =   0.0160000
        k(   27) = (   0.1059392   0.4281504   0.2466994), wk =   0.0160000
        k(   28) = (   0.1059392   0.5504791   0.0000000), wk =   0.0080000
        k(   29) = (   0.1059392   0.5504791   0.1233497), wk =   0.0160000
        k(   30) = (   0.1059392   0.5504791   0.2466994), wk =   0.0160000
        k(   31) = (   0.2118784   0.3669861   0.0000000), wk =   0.0080000
        k(   32) = (   0.2118784   0.3669861   0.1233497), wk =   0.0160000
        k(   33) = (   0.2118784   0.3669861   0.2466994), wk =   0.0160000
        k(   34) = (   0.2118784   0.4893148   0.0000000), wk =   0.0080000
        k(   35) = (   0.2118784   0.4893148   0.1233497), wk =   0.0160000
        k(   36) = (   0.2118784   0.4893148   0.2466994), wk =   0.0160000
        k(   37) = (   0.2118784   0.6116435   0.0000000), wk =   0.0040000
        k(   38) = (   0.2118784   0.6116435   0.1233497), wk =   0.0080000
        k(   39) = (   0.2118784   0.6116435   0.2466994), wk =   0.0080000
        k(   40) = (   0.3178177   0.5504791   0.0000000), wk =   0.0080000
        k(   41) = (   0.3178177   0.5504791   0.1233497), wk =   0.0160000
        k(   42) = (   0.3178177   0.5504791   0.2466994), wk =   0.0160000
        k(   43) = (   0.1059392  -0.0611643  -0.0000000), wk =   0.0080000
        k(   44) = (   0.1059392  -0.0611643   0.1233497), wk =   0.0160000
        k(   45) = (   0.1059392  -0.0611643   0.2466994), wk =   0.0160000
        k(   46) = (   0.2118784  -0.1223287  -0.0000000), wk =   0.0080000
        k(   47) = (   0.2118784  -0.1223287   0.1233497), wk =   0.0160000
        k(   48) = (   0.2118784  -0.1223287   0.2466994), wk =   0.0160000
        k(   49) = (   0.3178177  -0.1834930  -0.0000000), wk =   0.0080000
        k(   50) = (   0.3178177  -0.1834930   0.1233497), wk =   0.0160000
        k(   51) = (   0.3178177  -0.1834930   0.2466994), wk =   0.0160000
        k(   52) = (   0.4237569  -0.2446574  -0.0000000), wk =   0.0080000
        k(   53) = (   0.4237569  -0.2446574   0.1233497), wk =   0.0160000
        k(   54) = (   0.4237569  -0.2446574   0.2466994), wk =   0.0160000
        k(   55) = (  -0.5296961   0.3058217   0.0000000), wk =   0.0040000
        k(   56) = (  -0.5296961   0.3058217   0.1233497), wk =   0.0080000
        k(   57) = (  -0.5296961   0.3058217   0.2466994), wk =   0.0080000
        k(   58) = (   0.2118784  -0.0000000  -0.0000000), wk =   0.0040000
        k(   59) = (   0.2118784  -0.0000000  -0.1233497), wk =   0.0080000
        k(   60) = (   0.2118784  -0.0000000  -0.2466994), wk =   0.0080000
        k(   61) = (   0.2118784  -0.2446574  -0.0000000), wk =   0.0080000
        k(   62) = (   0.3178177  -0.0611643  -0.0000000), wk =   0.0080000
        k(   63) = (   0.2118784  -0.2446574   0.1233497), wk =   0.0160000
        k(   64) = (   0.3178177  -0.0611643  -0.1233497), wk =   0.0160000
        k(   65) = (   0.2118784  -0.2446574   0.2466994), wk =   0.0160000
        k(   66) = (   0.3178177  -0.0611643  -0.2466994), wk =   0.0160000
        k(   67) = (   0.3178177  -0.3058217  -0.0000000), wk =   0.0080000
        k(   68) = (   0.4237569  -0.1223287  -0.0000000), wk =   0.0080000
        k(   69) = (   0.3178177  -0.3058217   0.1233497), wk =   0.0160000
        k(   70) = (   0.4237569  -0.1223287  -0.1233497), wk =   0.0160000
        k(   71) = (   0.3178177  -0.3058217   0.2466994), wk =   0.0160000
        k(   72) = (   0.4237569  -0.1223287  -0.2466994), wk =   0.0160000
        k(   73) = (   0.4237569  -0.3669861  -0.0000000), wk =   0.0080000
        k(   74) = (   0.5296961  -0.1834930  -0.0000000), wk =   0.0080000
        k(   75) = (   0.4237569  -0.3669861   0.1233497), wk =   0.0160000
        k(   76) = (   0.5296961  -0.1834930  -0.1233497), wk =   0.0160000
        k(   77) = (   0.4237569  -0.3669861   0.2466994), wk =   0.0160000
        k(   78) = (   0.5296961  -0.1834930  -0.2466994), wk =   0.0160000
        k(   79) = (   0.4237569  -0.0000000  -0.0000000), wk =   0.0040000
        k(   80) = (   0.4237569  -0.0000000  -0.1233497), wk =   0.0080000
        k(   81) = (   0.4237569  -0.0000000  -0.2466994), wk =   0.0080000
        k(   82) = (   0.3178177  -0.4281504  -0.0000000), wk =   0.0080000
        k(   83) = (   0.5296961  -0.0611643  -0.0000000), wk =   0.0080000
        k(   84) = (   0.3178177  -0.4281504   0.1233497), wk =   0.0160000
        k(   85) = (   0.5296961  -0.0611643  -0.1233497), wk =   0.0160000
        k(   86) = (   0.3178177  -0.4281504   0.2466994), wk =   0.0160000
        k(   87) = (   0.5296961  -0.0611643  -0.2466994), wk =   0.0160000
        k(   88) = (   0.4237569  -0.4893148  -0.0000000), wk =   0.0080000
        k(   89) = (   0.4237569  -0.4893148   0.1233497), wk =   0.0160000
        k(   90) = (   0.4237569  -0.4893148   0.2466994), wk =   0.0160000
        k(   91) = (   0.6356353   0.0000000   0.0000000), wk =   0.0040000
        k(   92) = (   0.6356353  -0.0000000  -0.1233497), wk =   0.0080000
        k(   93) = (   0.6356353  -0.0000000  -0.2466994), wk =   0.0080000

     Dense  grid:    14559 G-vectors     FFT dimensions: (  27,  27,  45)

     Smooth grid:     3719 G-vectors     FFT dimensions: (  18,  18,  30)

     Estimated max dynamical RAM per process >      40.32 MB

     Estimated total dynamical RAM >      80.65 MB

     Check: negative core charge=   -0.000006
     Generating pointlists ...

     Initial potential from superposition of free atoms

     starting charge      15.9987, renormalised to      16.0000
     Starting wfcs are   12 randomized atomic wfcs

     total cpu time spent up to now is       91.1 secs

     Self-consistent Calculation

     iteration #  1     ecut=    30.00 Ry     beta= 0.50
     Davidson diagonalization with overlap
     c_bands:  1 eigenvalues not converged
     c_bands:  1 eigenvalues not converged
     c_bands:  1 eigenvalues not converged
     c_bands:  1 eigenvalues not converged
     c_bands:  1 eigenvalues not converged
     c_bands:  1 eigenvalues not converged
     c_bands:  1 eigenvalues not converged
     c_bands:  1 eigenvalues not converged
     c_bands:  1 eigenvalues not converged
     c_bands:  1 eigenvalues not converged
     c_bands:  1 eigenvalues not converged
     c_bands:  1 eigenvalues not converged
     c_bands:  1 eigenvalues not converged
     c_bands:  1 eigenvalues not converged
     c_bands:  1 eigenvalues not converged
     c_bands:  1 eigenvalues not converged
     c_bands:  1 eigenvalues not converged
     c_bands:  1 eigenvalues not converged
     c_bands:  1 eigenvalues not converged
     c_bands:  1 eigenvalues not converged
     c_bands:  1 eigenvalues not converged
     c_bands:  1 eigenvalues not converged
     c_bands:  1 eigenvalues not converged
     c_bands:  1 eigenvalues not converged
     c_bands:  1 eigenvalues not converged
     c_bands:  1 eigenvalues not converged
     c_bands:  1 eigenvalues not converged
     c_bands:  1 eigenvalues not converged
     c_bands:  1 eigenvalues not converged
     c_bands:  1 eigenvalues not converged
     c_bands:  1 eigenvalues not converged
     c_bands:  1 eigenvalues not converged
     ethr =  1.00E-06,  avg # of iterations = 16.0

     total cpu time spent up to now is       96.1 secs

     total energy              =    -111.31492299 Ry
     estimated scf accuracy    <       0.69417018 Ry

     total magnetization       =     5.15 Bohr mag/cell
     absolute magnetization    =     5.15 Bohr mag/cell

     iteration #  2     ecut=    30.00 Ry     beta= 0.50
     Davidson diagonalization with overlap
     ethr =  4.34E-03,  avg # of iterations =  2.4

     total cpu time spent up to now is       97.1 secs

     total energy              =    -111.54935510 Ry
     estimated scf accuracy    <       0.14587935 Ry

     total magnetization       =     5.36 Bohr mag/cell
     absolute magnetization    =     5.37 Bohr mag/cell

     iteration #  3     ecut=    30.00 Ry     beta= 0.50
     Davidson diagonalization with overlap
     ethr =  9.12E-04,  avg # of iterations =  1.5

     total cpu time spent up to now is       98.0 secs

     total energy              =    -111.57307507 Ry
     estimated scf accuracy    <       0.00917995 Ry

     total magnetization       =     5.43 Bohr mag/cell
     absolute magnetization    =     5.47 Bohr mag/cell

     iteration #  4     ecut=    30.00 Ry     beta= 0.50
     Davidson diagonalization with overlap
     ethr =  5.74E-05,  avg # of iterations =  3.0

     total cpu time spent up to now is       99.0 secs

     total energy              =    -111.57877229 Ry
     estimated scf accuracy    <       0.00853922 Ry

     total magnetization       =     5.43 Bohr mag/cell
     absolute magnetization    =     5.55 Bohr mag/cell

     iteration #  5     ecut=    30.00 Ry     beta= 0.50
     Davidson diagonalization with overlap
     ethr =  5.34E-05,  avg # of iterations =  1.1

     total cpu time spent up to now is       99.9 secs

     total energy              =    -111.57767370 Ry
     estimated scf accuracy    <       0.03218376 Ry

     total magnetization       =     5.43 Bohr mag/cell
     absolute magnetization    =     5.57 Bohr mag/cell

     iteration #  6     ecut=    30.00 Ry     beta= 0.50
     Davidson diagonalization with overlap
     ethr =  5.34E-05,  avg # of iterations =  1.9

     total cpu time spent up to now is      100.9 secs

     total energy              =    -111.58035854 Ry
     estimated scf accuracy    <       0.00261025 Ry

     total magnetization       =     5.44 Bohr mag/cell
     absolute magnetization    =     5.63 Bohr mag/cell

     iteration #  7     ecut=    30.00 Ry     beta= 0.50
     Davidson diagonalization with overlap
     ethr =  1.63E-05,  avg # of iterations =  1.8

     total cpu time spent up to now is      101.8 secs

     total energy              =    -111.58074081 Ry
     estimated scf accuracy    <       0.00007613 Ry

     total magnetization       =     5.45 Bohr mag/cell
     absolute magnetization    =     5.65 Bohr mag/cell

     iteration #  8     ecut=    30.00 Ry     beta= 0.50
     Davidson diagonalization with overlap
     ethr =  4.76E-07,  avg # of iterations =  4.0

     total cpu time spent up to now is      103.0 secs

     total energy              =    -111.58078369 Ry
     estimated scf accuracy    <       0.00001060 Ry

     total magnetization       =     5.46 Bohr mag/cell
     absolute magnetization    =     5.66 Bohr mag/cell

     iteration #  9     ecut=    30.00 Ry     beta= 0.50
     Davidson diagonalization with overlap
     ethr =  6.63E-08,  avg # of iterations =  4.5

     total cpu time spent up to now is      104.3 secs

     total energy              =    -111.58079336 Ry
     estimated scf accuracy    <       0.00000282 Ry

     total magnetization       =     5.46 Bohr mag/cell
     absolute magnetization    =     5.66 Bohr mag/cell

     iteration # 10     ecut=    30.00 Ry     beta= 0.50
     Davidson diagonalization with overlap
     ethr =  1.77E-08,  avg # of iterations =  4.7

     total cpu time spent up to now is      105.8 secs

     total energy              =    -111.58079255 Ry
     estimated scf accuracy    <       0.00000937 Ry

     total magnetization       =     5.46 Bohr mag/cell
     absolute magnetization    =     5.66 Bohr mag/cell

     iteration # 11     ecut=    30.00 Ry     beta= 0.50
     Davidson diagonalization with overlap
     ethr =  1.77E-08,  avg # of iterations =  2.5

     total cpu time spent up to now is      106.8 secs

     total energy              =    -111.58079321 Ry
     estimated scf accuracy    <       0.00000084 Ry

     total magnetization       =     5.46 Bohr mag/cell
     absolute magnetization    =     5.66 Bohr mag/cell

     iteration # 12     ecut=    30.00 Ry     beta= 0.50
     Davidson diagonalization with overlap
     ethr =  5.23E-09,  avg # of iterations =  3.5

     total cpu time spent up to now is      108.0 secs

     total energy              =    -111.58079360 Ry
     estimated scf accuracy    <       0.00000010 Ry

     total magnetization       =     5.46 Bohr mag/cell
     absolute magnetization    =     5.66 Bohr mag/cell

     iteration # 13     ecut=    30.00 Ry     beta= 0.50
     Davidson diagonalization with overlap
     ethr =  6.04E-10,  avg # of iterations =  4.6

     Magnetic moment per site  (integrated on atomic sphere of radius R)
     atom   1 (R=0.390)  charge=  6.5874  magn=  2.7651
     atom   2 (R=0.390)  charge=  6.5886  magn=  2.7652

     total cpu time spent up to now is      109.3 secs

     End of self-consistent calculation

     Number of k-points >= 100: set verbosity='high' to print the bands.

     the Fermi energy is    12.5688 ev

!    total energy              =    -111.58079366 Ry
     estimated scf accuracy    <          2.0E-10 Ry
     smearing contrib. (-TS)   =      -0.00016694 Ry
     internal energy E=F+TS    =    -111.58062672 Ry

     The total energy is F=E-TS. E is the sum of the following terms:
     one-electron contribution =      12.04461077 Ry
     hartree contribution      =      13.98058055 Ry
     xc contribution           =     -52.91776876 Ry
     ewald contribution        =     -84.68804929 Ry

     total magnetization       =     5.46 Bohr mag/cell
     absolute magnetization    =     5.66 Bohr mag/cell

     convergence has been achieved in  13 iterations

     Forces acting on atoms (cartesian axes, Ry/au):

     atom    1 type  1   force =     0.00000000   -0.00000123   -0.00000000
     atom    2 type  1   force =    -0.00000000    0.00000123    0.00000000

     Total force =     0.000002     Total SCF correction =     0.000001
     SCF correction compared to forces is large: reduce conv_thr to get better values


     Computing stress (Cartesian axis) and pressure

          total   stress  (Ry/bohr**3)                   (kbar)     P=       -1.43
  -0.00001491   0.00000000   0.00000000           -2.19        0.00        0.00
   0.00000000  -0.00001494  -0.00000000            0.00       -2.20       -0.00
   0.00000000  -0.00000000   0.00000078            0.00       -0.00        0.12

     Message from routine punch:
     Nothing written, as per user request (disk_io='none')

     init_run     :      1.47s CPU      1.64s WALL (       2 calls)
     electrons    :     90.12s CPU    101.79s WALL (       8 calls)
     update_pot   :      0.12s CPU      0.12s WALL (       6 calls)
     forces       :      0.91s CPU      0.94s WALL (       8 calls)
     stress       :      4.68s CPU      5.21s WALL (       8 calls)

     Called by init_run:
     wfcinit      :      0.80s CPU      0.92s WALL (       2 calls)
     potinit      :      0.17s CPU      0.18s WALL (       2 calls)
     hinit0       :      0.41s CPU      0.41s WALL (       2 calls)

     Called by electrons:
     c_bands      :     74.57s CPU     84.51s WALL (      72 calls)
     sum_band     :     12.57s CPU     14.16s WALL (      72 calls)
     v_of_rho     :      1.30s CPU      1.36s WALL (      78 calls)
     newd         :      1.83s CPU      1.89s WALL (      78 calls)
     mix_rho      :      0.09s CPU      0.09s WALL (      72 calls)

     Called by c_bands:
     init_us_2    :      1.74s CPU      1.99s WALL (   30132 calls)
     cegterg      :     69.59s CPU     78.89s WALL (   13392 calls)

     Called by *egterg:
     cdiaghg      :      6.51s CPU      7.40s WALL (   54412 calls)
     h_psi        :     56.13s CPU     63.64s WALL (   56272 calls)
     s_psi        :      1.14s CPU      1.31s WALL (   56272 calls)
     g_psi        :      0.32s CPU      0.36s WALL (   42508 calls)

     Called by h_psi:
     h_psi:calbec :      2.12s CPU      2.39s WALL (   56272 calls)
     vloc_psi     :     52.39s CPU     59.42s WALL (   56272 calls)
     add_vuspsi   :      1.21s CPU      1.37s WALL (   56272 calls)

     General routines
     calbec       :      3.78s CPU      4.21s WALL (   94960 calls)
     fft          :      0.75s CPU      0.79s WALL (    2264 calls)
     ffts         :      0.14s CPU      0.14s WALL (     300 calls)
     fftw         :     52.91s CPU     60.27s WALL ( 1125762 calls)
     interpolate  :      0.18s CPU      0.19s WALL (     156 calls)

     Parallel routines

     PWSCF        :   1m37.58s CPU   1m50.00s WALL


   This run was terminated on:  17:59:40  20Oct2025            

=------------------------------------------------------------------------------=
   JOB DONE.
=------------------------------------------------------------------------------=
