
     Program PWSCF v.7.4.1 starts on  8Oct2025 at 21:45:54 

     This program is part of the open-source Quantum ESPRESSO suite
     for quantum simulation of materials; please cite
         "P. Giannozzi et al., J. Phys.:Condens. Matter 21 395502 (2009);
         "P. Giannozzi et al., J. Phys.:Condens. Matter 29 465901 (2017);
         "P. Giannozzi et al., J. Chem. Phys. 152 154105 (2020);
          URL http://www.quantum-espresso.org", 
     in publications or presentations arising from this work. More details at
     http://www.quantum-espresso.org/quote

     Parallel version (MPI), running on     1 processors

     MPI processes distributed on     1 nodes
     871 MiB available memory on the printing compute node when the environment starts

     Waiting for input...
     Reading input from standard input
Warning: card &CELL ignored
Warning: card / ignored

     Current dimensions of program PWSCF are:
     Max number of different atomic species (ntypx) = 10
     Max number of k-points (npk) =  40000
     Max angular momentum in pseudopotentials (lmaxx) =  4
     Message from routine setup:
     using ibrav=0 with symmetry is DISCOURAGED, use correct ibrav instead

     Subspace diagonalization in iterative solution of the eigenvalue problem:
     a serial algorithm will be used


     G-vector sticks info
     --------------------
     sticks:   dense  smooth     PW     G-vecs:    dense   smooth      PW
     Sum         559     559    187                 8801     8801    1591

     Using Slab Decomposition



     bravais-lattice index     =            0
     lattice parameter (alat)  =       7.6433  a.u.
     unit-cell volume          =     315.7364 (a.u.)^3
     number of atoms/cell      =            2
     number of atomic types    =            1
     number of electrons       =        28.00
     number of Kohn-Sham states=           14
     kinetic-energy cutoff     =      35.0000  Ry
     charge density cutoff     =     140.0000  Ry
     scf convergence threshold =      1.0E-07
     mixing beta               =       0.5000
     number of iterations used =            8  plain     mixing
     Exchange-correlation=  SLA  PZ   NOGX NOGC
                           (   1   1   0   0   0   0   0)

     celldm(1)=   7.643282  celldm(2)=   0.000000  celldm(3)=   0.000000
     celldm(4)=   0.000000  celldm(5)=   0.000000  celldm(6)=   0.000000

     crystal axes: (cart. coord. in units of alat)
               a(1) = (   0.000000   0.707107   0.707107 )  
               a(2) = (   0.707107   0.000000   0.707107 )  
               a(3) = (   0.707107   0.707107   0.000000 )  

     reciprocal axes: (cart. coord. in units 2 pi/alat)
               b(1) = ( -0.707107  0.707107  0.707107 )  
               b(2) = (  0.707107 -0.707107  0.707107 )  
               b(3) = (  0.707107  0.707107 -0.707107 )  


     PseudoPot. # 1 for Ge read from file:
     /home/bond/Software/QE/qe-7.4.1/pseudo/ge_lda_v1.4.uspp.F.UPF
     MD5 check sum: bf9d52b59cc8a669818bb2b52e0c2ba0
     Pseudo is Ultrasoft + core correction, Zval = 14.0
     Generated by new atomic code, or converted to UPF format
     Using radial grid of  873 points,  6 beta functions with: 
                l(1) =   0
                l(2) =   0
                l(3) =   1
                l(4) =   1
                l(5) =   2
                l(6) =   2
     Q(r) pseudized with  8 coefficients,  rinner =    1.400   1.400   1.400
                                                       1.400   1.400

     atomic species   valence    mass     pseudopotential
     Ge               14.00    72.63000     Ge( 1.00)

     48 Sym. Ops., with inversion, found (24 have fractional translation)



   Cartesian axes

     site n.     atom                  positions (alat units)
         1        Ge     tau(   1) = (   0.0000000   0.0000000   0.0000000  )
         2        Ge     tau(   2) = (   0.3535534   0.3535534   0.3535534  )

     number of k points=    47
                       cart. coord. in units 2pi/alat
        k(    1) = (   0.0000000   0.0000000   0.0000000), wk =   0.0020000
        k(    2) = (   0.0707107   0.0707107  -0.0707107), wk =   0.0160000
        k(    3) = (   0.1414214   0.1414214  -0.1414214), wk =   0.0160000
        k(    4) = (   0.2121320   0.2121320  -0.2121320), wk =   0.0160000
        k(    5) = (   0.2828427   0.2828427  -0.2828427), wk =   0.0160000
        k(    6) = (  -0.3535534  -0.3535534   0.3535534), wk =   0.0080000
        k(    7) = (   0.1414214   0.0000000   0.0000000), wk =   0.0120000
        k(    8) = (   0.2121320   0.0707107  -0.0707107), wk =   0.0480000
        k(    9) = (   0.2828427   0.1414214  -0.1414214), wk =   0.0480000
        k(   10) = (   0.3535534   0.2121320  -0.2121320), wk =   0.0480000
        k(   11) = (  -0.2828427  -0.4242641   0.4242641), wk =   0.0480000
        k(   12) = (  -0.2121320  -0.3535534   0.3535534), wk =   0.0480000
        k(   13) = (  -0.1414214  -0.2828427   0.2828427), wk =   0.0480000
        k(   14) = (  -0.0707107  -0.2121320   0.2121320), wk =   0.0480000
        k(   15) = (   0.0000000  -0.1414214   0.1414214), wk =   0.0240000
        k(   16) = (   0.2828427   0.0000000   0.0000000), wk =   0.0120000
        k(   17) = (   0.3535534   0.0707107  -0.0707107), wk =   0.0480000
        k(   18) = (   0.4242641   0.1414214  -0.1414214), wk =   0.0480000
        k(   19) = (  -0.2121320  -0.4949747   0.4949747), wk =   0.0480000
        k(   20) = (  -0.1414214  -0.4242641   0.4242641), wk =   0.0480000
        k(   21) = (  -0.0707107  -0.3535534   0.3535534), wk =   0.0480000
        k(   22) = (   0.0000000  -0.2828427   0.2828427), wk =   0.0240000
        k(   23) = (   0.4242641   0.0000000   0.0000000), wk =   0.0120000
        k(   24) = (   0.4949747   0.0707107  -0.0707107), wk =   0.0480000
        k(   25) = (  -0.1414214  -0.5656854   0.5656854), wk =   0.0480000
        k(   26) = (  -0.0707107  -0.4949747   0.4949747), wk =   0.0480000
        k(   27) = (  -0.0000000  -0.4242641   0.4242641), wk =   0.0240000
        k(   28) = (   0.5656854   0.0000000   0.0000000), wk =   0.0120000
        k(   29) = (  -0.0707107  -0.6363961   0.6363961), wk =   0.0480000
        k(   30) = (   0.0000000  -0.5656854   0.5656854), wk =   0.0240000
        k(   31) = (  -0.7071068   0.0000000   0.0000000), wk =   0.0060000
        k(   32) = (   0.2828427   0.1414214   0.0000000), wk =   0.0480000
        k(   33) = (   0.3535534   0.2121320  -0.0707107), wk =   0.0960000
        k(   34) = (  -0.2828427  -0.4242641   0.5656854), wk =   0.0960000
        k(   35) = (  -0.2121320  -0.3535534   0.4949747), wk =   0.0480000
        k(   36) = (   0.4242641   0.1414214  -0.0000000), wk =   0.0480000
        k(   37) = (  -0.2121320  -0.4949747   0.6363961), wk =   0.0960000
        k(   38) = (  -0.1414214  -0.4242641   0.5656854), wk =   0.0960000
        k(   39) = (  -0.0707107  -0.3535534   0.4949747), wk =   0.0960000
        k(   40) = (   0.0000000  -0.2828427   0.4242641), wk =   0.0480000
        k(   41) = (  -0.1414214  -0.5656854   0.7071068), wk =   0.0480000
        k(   42) = (  -0.0707107  -0.4949747   0.6363961), wk =   0.0960000
        k(   43) = (  -0.0000000  -0.4242641   0.5656854), wk =   0.0480000
        k(   44) = (  -0.7071068   0.1414214   0.0000000), wk =   0.0240000
        k(   45) = (  -0.1414214  -0.4242641   0.7071068), wk =   0.0480000
        k(   46) = (  -0.0707107  -0.3535534   0.6363961), wk =   0.0480000
        k(   47) = (  -0.7071068   0.2828427   0.0000000), wk =   0.0240000

     Dense  grid:     8801 G-vectors     FFT dimensions: (  32,  32,  32)

     Estimated max dynamical RAM per process >      45.78 MB

     Check: negative core charge=   -0.000018

     Initial potential from superposition of free atoms

     starting charge      27.9986, renormalised to      28.0000
     Starting wfcs are   18 randomized atomic wfcs

     total cpu time spent up to now is        1.0 secs

     Self-consistent Calculation

     iteration #  1     ecut=    35.00 Ry     beta= 0.50
     Davidson diagonalization with overlap
     ethr =  1.00E-02,  avg # of iterations =  1.6

     Threshold (ethr) on eigenvalues was too large:
     Diagonalizing with lowered threshold

     Davidson diagonalization with overlap
     ethr =  1.09E-04,  avg # of iterations =  2.0

     total cpu time spent up to now is        2.7 secs

     total energy              =    -426.16811251 Ry
     estimated scf accuracy    <       0.03263427 Ry

     iteration #  2     ecut=    35.00 Ry     beta= 0.50
     Davidson diagonalization with overlap
     ethr =  1.17E-04,  avg # of iterations =  1.0

     total cpu time spent up to now is        3.6 secs

     total energy              =    -426.16686971 Ry
     estimated scf accuracy    <       0.00583104 Ry

     iteration #  3     ecut=    35.00 Ry     beta= 0.50
     Davidson diagonalization with overlap
     ethr =  2.08E-05,  avg # of iterations =  2.0

     total cpu time spent up to now is        4.5 secs

     total energy              =    -426.16729677 Ry
     estimated scf accuracy    <       0.00006449 Ry

     iteration #  4     ecut=    35.00 Ry     beta= 0.50
     Davidson diagonalization with overlap
     ethr =  2.30E-07,  avg # of iterations =  3.8

     total cpu time spent up to now is        5.6 secs

     total energy              =    -426.16731887 Ry
     estimated scf accuracy    <       0.00000350 Ry

     iteration #  5     ecut=    35.00 Ry     beta= 0.50
     Davidson diagonalization with overlap
     ethr =  1.25E-08,  avg # of iterations =  3.3

     total cpu time spent up to now is        6.8 secs

     End of self-consistent calculation

          k = 0.0000 0.0000 0.0000 (  1067 PWs)   bands (ev):

   -17.1306 -17.1306 -17.1306 -17.0979 -17.0979 -16.9048 -16.9048 -16.9048
   -16.8918 -16.8918  -4.8469   7.2429   7.7274   7.7274

          k = 0.0707 0.0707-0.0707 (  1097 PWs)   bands (ev):

   -17.1369 -17.1369 -17.1301 -17.0906 -17.0906 -16.9130 -16.9130 -16.9064
   -16.8862 -16.8862  -4.7288   5.7003   7.5071   7.5071

          k = 0.1414 0.1414-0.1414 (  1098 PWs)   bands (ev):

   -17.1454 -17.1454 -17.1264 -17.0776 -17.0776 -16.9243 -16.9243 -16.9109
   -16.8778 -16.8778  -4.3815   3.8586   7.0825   7.0825

          k = 0.2121 0.2121-0.2121 (  1095 PWs)   bands (ev):

   -17.1511 -17.1511 -17.1211 -17.0671 -17.0671 -16.9324 -16.9324 -16.9167
   -16.8721 -16.8721  -3.8355   2.1686   6.7030   6.7030

          k = 0.2828 0.2828-0.2828 (  1107 PWs)   bands (ev):

   -17.1540 -17.1540 -17.1179 -17.0615 -17.0615 -16.9365 -16.9365 -16.9219
   -16.8689 -16.8689  -3.1975   0.8213   6.4576   6.4576

          k =-0.3536-0.3536 0.3536 (  1104 PWs)   bands (ev):

   -17.1544 -17.1544 -17.1164 -17.0602 -17.0602 -16.9371 -16.9371 -16.9231
   -16.8683 -16.8683  -2.8414   0.2256   6.3737   6.3737

          k = 0.1414 0.0000 0.0000 (  1106 PWs)   bands (ev):

   -17.1369 -17.1356 -17.1356 -17.0927 -17.0831 -16.9280 -16.8997 -16.8997
   -16.8978 -16.8819  -4.6890   5.6122   7.1287   7.1287

          k = 0.2121 0.0707-0.0707 (  1108 PWs)   bands (ev):

   -17.1467 -17.1417 -17.1313 -17.0832 -17.0694 -16.9430 -16.9116 -16.8999
   -16.8873 -16.8752  -4.4165   4.2412   6.6688   6.6724

          k = 0.2828 0.1414-0.1414 (  1102 PWs)   bands (ev):

   -17.1555 -17.1484 -17.1225 -17.0716 -17.0569 -16.9533 -16.9233 -16.9084
   -16.8781 -16.8672  -3.9311   2.6283   6.1444   6.3161

          k = 0.3536 0.2121-0.2121 (  1105 PWs)   bands (ev):

   -17.1610 -17.1530 -17.1135 -17.0621 -17.0513 -16.9555 -16.9330 -16.9193
   -16.8713 -16.8618  -3.3011   1.1978   5.7005   6.1364

          k =-0.2828-0.4243 0.4243 (  1105 PWs)   bands (ev):

   -17.1629 -17.1562 -17.1073 -17.0551 -17.0532 -16.9492 -16.9412 -16.9281
   -16.8664 -16.8600  -2.7806   0.3013   5.4167   6.1468

          k =-0.2121-0.3536 0.3536 (  1109 PWs)   bands (ev):

   -17.1614 -17.1578 -17.1067 -17.0593 -17.0516 -16.9469 -16.9377 -16.9328
   -16.8639 -16.8626  -2.9115   0.5098   5.3236   6.3399

          k =-0.1414-0.2828 0.2828 (  1105 PWs)   bands (ev):

   -17.1572 -17.1562 -17.1121 -17.0664 -17.0539 -16.9475 -16.9346 -16.9210
   -16.8694 -16.8645  -3.5211   1.6428   5.4444   6.6873

          k =-0.0707-0.2121 0.2121 (  1106 PWs)   bands (ev):

   -17.1532 -17.1484 -17.1215 -17.0754 -17.0637 -16.9406 -16.9294 -16.9060
   -16.8802 -16.8684  -4.1161   3.1484   5.8134   7.1251

          k = 0.0000-0.1414 0.1414 (  1109 PWs)   bands (ev):

   -17.1456 -17.1395 -17.1294 -17.0855 -17.0780 -16.9280 -16.9204 -16.8940
   -16.8940 -16.8757  -4.5336   4.6679   6.5235   7.4956

          k = 0.2828 0.0000 0.0000 (  1106 PWs)   bands (ev):

   -17.1444 -17.1444 -17.1395 -17.0776 -17.0530 -16.9644 -16.9122 -16.8866
   -16.8866 -16.8787  -4.2188   3.8026   6.1860   6.1860

          k = 0.3536 0.0707-0.0707 (  1095 PWs)   bands (ev):

   -17.1553 -17.1497 -17.1290 -17.0658 -17.0371 -16.9810 -16.9241 -16.8947
   -16.8772 -16.8686  -3.8001   2.6800   5.5924   5.8181

          k = 0.4243 0.1414-0.1414 (  1097 PWs)   bands (ev):

   -17.1658 -17.1549 -17.1132 -17.0536 -17.0284 -16.9881 -16.9378 -16.9119
   -16.8690 -16.8570  -3.2033   1.4209   4.9068   5.6365

          k =-0.2121-0.4950 0.4950 (  1107 PWs)   bands (ev):

   -17.1725 -17.1590 -17.0988 -17.0427 -17.0311 -16.9827 -16.9508 -16.9286
   -16.8626 -16.8500  -2.5887   0.4097   4.3905   5.6630

          k =-0.1414-0.4243 0.4243 (  1114 PWs)   bands (ev):

   -17.1737 -17.1620 -17.0911 -17.0429 -17.0354 -16.9669 -16.9611 -16.9380
   -16.8592 -16.8494  -2.4729   0.2460   4.1281   5.8916

          k =-0.0707-0.3536 0.3536 (  1109 PWs)   bands (ev):

   -17.1687 -17.1623 -17.0938 -17.0580 -17.0362 -16.9636 -16.9465 -16.9373
   -16.8587 -16.8558  -3.0125   1.0755   4.1848   6.2875

          k = 0.0000-0.2828 0.2828 (  1093 PWs)   bands (ev):

   -17.1591 -17.1587 -17.1069 -17.0681 -17.0474 -16.9550 -16.9376 -16.9194
   -16.8678 -16.8615  -3.6391   2.1956   4.6956   6.7649

          k = 0.4243 0.0000 0.0000 (  1094 PWs)   bands (ev):

   -17.1539 -17.1539 -17.1315 -17.0543 -17.0162 -17.0051 -16.9342 -16.8883
   -16.8713 -16.8713  -3.4471   2.0562   5.4164   5.4164

          k = 0.4950 0.0707-0.0707 (  1100 PWs)   bands (ev):

   -17.1632 -17.1585 -17.1166 -17.0406 -17.0213 -17.0004 -16.9483 -16.9055
   -16.8644 -16.8592  -2.8977   1.1224   4.8163   5.1983

          k =-0.1414-0.5657 0.5657 (  1102 PWs)   bands (ev):

   -17.1738 -17.1619 -17.0964 -17.0269 -17.0243 -16.9955 -16.9634 -16.9274
   -16.8591 -16.8476  -2.2464   0.2219   4.0524   5.1940

          k =-0.0707-0.4950 0.4950 (  1111 PWs)   bands (ev):

   -17.1795 -17.1643 -17.0841 -17.0166 -17.0141 -17.0039 -16.9768 -16.9399
   -16.8560 -16.8422  -1.9207  -0.1618   3.5562   5.4031

          k =-0.0000-0.4243 0.4243 (  1113 PWs)   bands (ev):

   -17.1777 -17.1648 -17.0834 -17.0368 -17.0200 -16.9772 -16.9765 -16.9418
   -16.8560 -16.8450  -2.3807   0.3755   3.5404   5.7951

          k = 0.5657 0.0000 0.0000 (  1094 PWs)   bands (ev):

   -17.1613 -17.1613 -17.1127 -17.0461 -17.0251 -16.9777 -16.9620 -16.9097
   -16.8597 -16.8597  -2.3947   0.4074   4.9313   4.9313

          k =-0.0707-0.6364 0.6364 (  1106 PWs)   bands (ev):

   -17.1683 -17.1637 -17.0937 -17.0591 -17.0100 -16.9782 -16.9642 -16.9298
   -16.8567 -16.8521  -1.7432  -0.3725   4.4198   4.8769

          k = 0.0000-0.5657 0.5657 (  1117 PWs)   bands (ev):

   -17.1771 -17.1649 -17.0823 -17.0446 -17.0007 -16.9895 -16.9771 -16.9418
   -16.8554 -16.8440  -1.3746  -0.7263   3.7533   5.0418

          k =-0.7071 0.0000 0.0000 (  1106 PWs)   bands (ev):

   -17.1642 -17.1642 -17.0835 -17.0835 -16.9933 -16.9933 -16.9412 -16.9412
   -16.8557 -16.8557  -1.0944  -1.0944   4.7664   4.7664

          k = 0.2828 0.1414 0.0000 (  1104 PWs)   bands (ev):

   -17.1533 -17.1488 -17.1251 -17.0744 -17.0542 -16.9593 -16.9206 -16.9011
   -16.8809 -16.8686  -4.0719   3.2356   5.5922   6.6037

          k = 0.3536 0.2121-0.0707 (  1099 PWs)   bands (ev):

   -17.1613 -17.1564 -17.1115 -17.0640 -17.0415 -16.9696 -16.9308 -16.9169
   -16.8687 -16.8613  -3.5286   1.9515   4.9229   6.2433

          k =-0.2828-0.4243 0.5657 (  1105 PWs)   bands (ev):

   -17.1682 -17.1599 -17.0994 -17.0539 -17.0373 -16.9704 -16.9414 -16.9321
   -16.8623 -16.8548  -2.8873   0.7631   4.5968   5.9197

          k =-0.2121-0.3536 0.4950 (  1108 PWs)   bands (ev):

   -17.1709 -17.1610 -17.0946 -17.0473 -17.0394 -16.9651 -16.9518 -16.9362
   -16.8608 -16.8519  -2.5213   0.2010   4.5008   5.7965

          k = 0.4243 0.1414-0.0000 (  1094 PWs)   bands (ev):

   -17.1599 -17.1589 -17.1170 -17.0540 -17.0208 -16.9976 -16.9361 -16.9066
   -16.8659 -16.8625  -3.3181   1.7717   4.8688   5.5526

          k =-0.2121-0.4950 0.6364 (  1095 PWs)   bands (ev):

   -17.1703 -17.1630 -17.0981 -17.0416 -17.0132 -17.0032 -16.9504 -16.9264
   -16.8588 -16.8518  -2.6861   0.7718   4.2477   5.2586

          k =-0.1414-0.4243 0.5657 (  1107 PWs)   bands (ev):

   -17.1769 -17.1654 -17.0840 -17.0319 -17.0159 -16.9973 -16.9650 -16.9403
   -16.8556 -16.8450  -2.1496   0.0499   3.8424   5.2062

          k =-0.0707-0.3536 0.4950 (  1108 PWs)   bands (ev):

   -17.1764 -17.1660 -17.0821 -17.0382 -17.0183 -16.9891 -16.9643 -16.9426
   -16.8549 -16.8459  -2.3188   0.2688   3.7345   5.4262

          k = 0.0000-0.2828 0.4243 (  1103 PWs)   bands (ev):

   -17.1692 -17.1642 -17.0934 -17.0533 -17.0259 -16.9828 -16.9421 -16.9370
   -16.8568 -16.8546  -2.9463   1.1176   4.0522   5.8371

          k =-0.1414-0.5657 0.7071 (  1094 PWs)   bands (ev):

   -17.1665 -17.1662 -17.0993 -17.0364 -17.0260 -16.9848 -16.9631 -16.9231
   -16.8549 -16.8548  -2.3003   0.3188   4.4696   4.8022

          k =-0.0707-0.4950 0.6364 (  1106 PWs)   bands (ev):

   -17.1759 -17.1682 -17.0783 -17.0378 -17.0125 -16.9826 -16.9790 -16.9441
   -16.8523 -16.8451  -1.6651  -0.3932   3.8723   4.7121

          k =-0.0000-0.4243 0.5657 (  1110 PWs)   bands (ev):

   -17.1799 -17.1682 -17.0740 -17.0156 -17.0143 -16.9985 -16.9849 -16.9478
   -16.8521 -16.8415  -1.7068  -0.3340   3.5093   4.9662

          k =-0.7071 0.1414 0.0000 (  1114 PWs)   bands (ev):

   -17.1692 -17.1692 -17.0719 -17.0719 -16.9944 -16.9944 -16.9513 -16.9513
   -16.8514 -16.8514  -1.0651  -1.0651   4.4394   4.4394

          k =-0.1414-0.4243 0.7071 (  1099 PWs)   bands (ev):

   -17.1752 -17.1703 -17.0761 -17.0278 -17.0170 -16.9970 -16.9691 -16.9465
   -16.8502 -16.8462  -2.0448   0.0519   3.8033   4.7448

          k =-0.0707-0.3536 0.6364 (  1110 PWs)   bands (ev):

   -17.1785 -17.1719 -17.0648 -17.0238 -17.0146 -16.9946 -16.9815 -16.9554
   -16.8487 -16.8427  -1.6118  -0.4123   3.6730   4.5167

          k =-0.7071 0.2828 0.0000 (  1108 PWs)   bands (ev):

   -17.1754 -17.1754 -17.0499 -17.0499 -16.9987 -16.9987 -16.9687 -16.9687
   -16.8451 -16.8451  -1.0156  -1.0156   4.0250   4.0250

     highest occupied level (ev):     7.7274

!    total energy              =    -426.16731973 Ry
     estimated scf accuracy    <       0.00000005 Ry

     The total energy is the sum of the following terms:
     one-electron contribution =    -282.67585665 Ry
     hartree contribution      =     166.36114655 Ry
     xc contribution           =    -114.49880896 Ry
     ewald contribution        =    -195.35380068 Ry

     convergence has been achieved in   5 iterations

     Forces acting on atoms (cartesian axes, Ry/au):

     atom    1 type  1   force =     0.00000000    0.00000000    0.00000000
     atom    2 type  1   force =     0.00000000   -0.00000000    0.00000000

     Total force =     0.000000     Total SCF correction =     0.000000


     Computing stress (Cartesian axis) and pressure

          total   stress  (Ry/bohr**3)                   (kbar)     P=      -45.79
  -0.00031129   0.00000000   0.00000000          -45.79        0.00        0.00
   0.00000000  -0.00031129   0.00000000            0.00      -45.79        0.00
   0.00000000   0.00000000  -0.00031129            0.00        0.00      -45.79

     Message from routine punch:
     Nothing written, as per user request (disk_io='none')

     init_run     :      0.90s CPU      0.92s WALL (       1 calls)
     electrons    :      5.66s CPU      5.75s WALL (       1 calls)
     forces       :      0.08s CPU      0.08s WALL (       1 calls)
     stress       :      0.51s CPU      0.51s WALL (       1 calls)

     Called by init_run:
     wfcinit      :      0.57s CPU      0.58s WALL (       1 calls)
     potinit      :      0.01s CPU      0.01s WALL (       1 calls)
     hinit0       :      0.29s CPU      0.29s WALL (       1 calls)

     Called by electrons:
     c_bands      :      4.60s CPU      4.65s WALL (       6 calls)
     sum_band     :      0.95s CPU      0.98s WALL (       6 calls)
     v_of_rho     :      0.01s CPU      0.01s WALL (       6 calls)
     newd         :      0.12s CPU      0.14s WALL (       6 calls)
     mix_rho      :      0.00s CPU      0.00s WALL (       6 calls)

     Called by c_bands:
     init_us_2    :      0.18s CPU      0.19s WALL (     705 calls)
     cegterg      :      4.16s CPU      4.21s WALL (     282 calls)

     Called by *egterg:
     cdiaghg      :      0.15s CPU      0.15s WALL (     883 calls)
     h_psi        :      4.03s CPU      4.07s WALL (     977 calls)
     s_psi        :      0.10s CPU      0.10s WALL (     977 calls)
     g_psi        :      0.03s CPU      0.03s WALL (     648 calls)

     Called by h_psi:
     h_psi:calbec :      0.12s CPU      0.12s WALL (     977 calls)
     vloc_psi     :      3.78s CPU      3.82s WALL (     977 calls)
     add_vuspsi   :      0.10s CPU      0.10s WALL (     977 calls)

     General routines
     calbec       :      0.25s CPU      0.25s WALL (    2058 calls)
     fft          :      0.15s CPU      0.15s WALL (      33 calls)
     ffts         :      0.00s CPU      0.00s WALL (       6 calls)
     fftw         :      3.84s CPU      3.90s WALL (   25024 calls)

     Parallel routines

     PWSCF        :      7.24s CPU      7.37s WALL


   This run was terminated on:  21:46: 1   8Oct2025            

=------------------------------------------------------------------------------=
   JOB DONE.
=------------------------------------------------------------------------------=
