
     Program PWSCF v.7.4.1 starts on  7Oct2025 at 23:55:59 

     This program is part of the open-source Quantum ESPRESSO suite
     for quantum simulation of materials; please cite
         "P. Giannozzi et al., J. Phys.:Condens. Matter 21 395502 (2009);
         "P. Giannozzi et al., J. Phys.:Condens. Matter 29 465901 (2017);
         "P. Giannozzi et al., J. Chem. Phys. 152 154105 (2020);
          URL http://www.quantum-espresso.org", 
     in publications or presentations arising from this work. More details at
     http://www.quantum-espresso.org/quote

     Parallel version (MPI), running on     1 processors

     MPI processes distributed on     1 nodes
     238 MiB available memory on the printing compute node when the environment starts

     Waiting for input...
     Reading input from standard input
Warning: card &CELL ignored
Warning: card / ignored

     Current dimensions of program PWSCF are:
     Max number of different atomic species (ntypx) = 10
     Max number of k-points (npk) =  40000
     Max angular momentum in pseudopotentials (lmaxx) =  4
     Message from routine setup:
     using ibrav=0 with symmetry is DISCOURAGED, use correct ibrav instead

     Subspace diagonalization in iterative solution of the eigenvalue problem:
     a serial algorithm will be used


     G-vector sticks info
     --------------------
     sticks:   dense  smooth     PW     G-vecs:    dense   smooth      PW
     Sum         475     475    151                 6855     6855    1243

     Using Slab Decomposition



     bravais-lattice index     =            0
     lattice parameter (alat)  =       7.5604  a.u.
     unit-cell volume          =     305.5804 (a.u.)^3
     number of atoms/cell      =            2
     number of atomic types    =            1
     number of electrons       =        28.00
     number of Kohn-Sham states=           14
     kinetic-energy cutoff     =      30.0000  Ry
     charge density cutoff     =     120.0000  Ry
     scf convergence threshold =      1.0E-07
     mixing beta               =       0.5000
     number of iterations used =            8  plain     mixing
     Exchange-correlation=  SLA  PZ   NOGX NOGC
                           (   1   1   0   0   0   0   0)

     celldm(1)=   7.560435  celldm(2)=   0.000000  celldm(3)=   0.000000
     celldm(4)=   0.000000  celldm(5)=   0.000000  celldm(6)=   0.000000

     crystal axes: (cart. coord. in units of alat)
               a(1) = (   0.000000   0.707107   0.707107 )  
               a(2) = (   0.707107   0.000000   0.707107 )  
               a(3) = (   0.707107   0.707107   0.000000 )  

     reciprocal axes: (cart. coord. in units 2 pi/alat)
               b(1) = ( -0.707107  0.707107  0.707107 )  
               b(2) = (  0.707107 -0.707107  0.707107 )  
               b(3) = (  0.707107  0.707107 -0.707107 )  


     PseudoPot. # 1 for Ge read from file:
     /home/bond/Software/QE/qe-7.4.1/pseudo/ge_lda_v1.4.uspp.F.UPF
     MD5 check sum: bf9d52b59cc8a669818bb2b52e0c2ba0
     Pseudo is Ultrasoft + core correction, Zval = 14.0
     Generated by new atomic code, or converted to UPF format
     Using radial grid of  873 points,  6 beta functions with: 
                l(1) =   0
                l(2) =   0
                l(3) =   1
                l(4) =   1
                l(5) =   2
                l(6) =   2
     Q(r) pseudized with  8 coefficients,  rinner =    1.400   1.400   1.400
                                                       1.400   1.400

     atomic species   valence    mass     pseudopotential
     Ge               14.00    72.63000     Ge( 1.00)

     48 Sym. Ops., with inversion, found (24 have fractional translation)



   Cartesian axes

     site n.     atom                  positions (alat units)
         1        Ge     tau(   1) = (   0.0000000   0.0000000   0.0000000  )
         2        Ge     tau(   2) = (   0.3535534   0.3535534   0.3535534  )

     number of k points=    47
                       cart. coord. in units 2pi/alat
        k(    1) = (   0.0000000   0.0000000   0.0000000), wk =   0.0020000
        k(    2) = (   0.0707107   0.0707107  -0.0707107), wk =   0.0160000
        k(    3) = (   0.1414214   0.1414214  -0.1414214), wk =   0.0160000
        k(    4) = (   0.2121320   0.2121320  -0.2121320), wk =   0.0160000
        k(    5) = (   0.2828427   0.2828427  -0.2828427), wk =   0.0160000
        k(    6) = (  -0.3535534  -0.3535534   0.3535534), wk =   0.0080000
        k(    7) = (   0.1414214   0.0000000   0.0000000), wk =   0.0120000
        k(    8) = (   0.2121320   0.0707107  -0.0707107), wk =   0.0480000
        k(    9) = (   0.2828427   0.1414214  -0.1414214), wk =   0.0480000
        k(   10) = (   0.3535534   0.2121320  -0.2121320), wk =   0.0480000
        k(   11) = (  -0.2828427  -0.4242641   0.4242641), wk =   0.0480000
        k(   12) = (  -0.2121320  -0.3535534   0.3535534), wk =   0.0480000
        k(   13) = (  -0.1414214  -0.2828427   0.2828427), wk =   0.0480000
        k(   14) = (  -0.0707107  -0.2121320   0.2121320), wk =   0.0480000
        k(   15) = (   0.0000000  -0.1414214   0.1414214), wk =   0.0240000
        k(   16) = (   0.2828427   0.0000000   0.0000000), wk =   0.0120000
        k(   17) = (   0.3535534   0.0707107  -0.0707107), wk =   0.0480000
        k(   18) = (   0.4242641   0.1414214  -0.1414214), wk =   0.0480000
        k(   19) = (  -0.2121320  -0.4949747   0.4949747), wk =   0.0480000
        k(   20) = (  -0.1414214  -0.4242641   0.4242641), wk =   0.0480000
        k(   21) = (  -0.0707107  -0.3535534   0.3535534), wk =   0.0480000
        k(   22) = (   0.0000000  -0.2828427   0.2828427), wk =   0.0240000
        k(   23) = (   0.4242641   0.0000000   0.0000000), wk =   0.0120000
        k(   24) = (   0.4949747   0.0707107  -0.0707107), wk =   0.0480000
        k(   25) = (  -0.1414214  -0.5656854   0.5656854), wk =   0.0480000
        k(   26) = (  -0.0707107  -0.4949747   0.4949747), wk =   0.0480000
        k(   27) = (  -0.0000000  -0.4242641   0.4242641), wk =   0.0240000
        k(   28) = (   0.5656854   0.0000000   0.0000000), wk =   0.0120000
        k(   29) = (  -0.0707107  -0.6363961   0.6363961), wk =   0.0480000
        k(   30) = (   0.0000000  -0.5656854   0.5656854), wk =   0.0240000
        k(   31) = (  -0.7071068   0.0000000   0.0000000), wk =   0.0060000
        k(   32) = (   0.2828427   0.1414214   0.0000000), wk =   0.0480000
        k(   33) = (   0.3535534   0.2121320  -0.0707107), wk =   0.0960000
        k(   34) = (  -0.2828427  -0.4242641   0.5656854), wk =   0.0960000
        k(   35) = (  -0.2121320  -0.3535534   0.4949747), wk =   0.0480000
        k(   36) = (   0.4242641   0.1414214  -0.0000000), wk =   0.0480000
        k(   37) = (  -0.2121320  -0.4949747   0.6363961), wk =   0.0960000
        k(   38) = (  -0.1414214  -0.4242641   0.5656854), wk =   0.0960000
        k(   39) = (  -0.0707107  -0.3535534   0.4949747), wk =   0.0960000
        k(   40) = (   0.0000000  -0.2828427   0.4242641), wk =   0.0480000
        k(   41) = (  -0.1414214  -0.5656854   0.7071068), wk =   0.0480000
        k(   42) = (  -0.0707107  -0.4949747   0.6363961), wk =   0.0960000
        k(   43) = (  -0.0000000  -0.4242641   0.5656854), wk =   0.0480000
        k(   44) = (  -0.7071068   0.1414214   0.0000000), wk =   0.0240000
        k(   45) = (  -0.1414214  -0.4242641   0.7071068), wk =   0.0480000
        k(   46) = (  -0.0707107  -0.3535534   0.6363961), wk =   0.0480000
        k(   47) = (  -0.7071068   0.2828427   0.0000000), wk =   0.0240000

     Dense  grid:     6855 G-vectors     FFT dimensions: (  32,  32,  32)

     Estimated max dynamical RAM per process >      36.17 MB

     Check: negative core charge=   -0.000126

     Initial potential from superposition of free atoms

     starting charge      27.9986, renormalised to      28.0000
     Starting wfcs are   18 randomized atomic wfcs

     total cpu time spent up to now is        1.2 secs

     Self-consistent Calculation

     iteration #  1     ecut=    30.00 Ry     beta= 0.50
     Davidson diagonalization with overlap
     ethr =  1.00E-02,  avg # of iterations =  1.7

     Threshold (ethr) on eigenvalues was too large:
     Diagonalizing with lowered threshold

     Davidson diagonalization with overlap
     ethr =  1.20E-04,  avg # of iterations =  2.0

     total cpu time spent up to now is        3.1 secs

     total energy              =    -426.13961580 Ry
     estimated scf accuracy    <       0.03570022 Ry

     iteration #  2     ecut=    30.00 Ry     beta= 0.50
     Davidson diagonalization with overlap
     ethr =  1.28E-04,  avg # of iterations =  1.0

     total cpu time spent up to now is        4.0 secs

     total energy              =    -426.13846691 Ry
     estimated scf accuracy    <       0.00607518 Ry

     iteration #  3     ecut=    30.00 Ry     beta= 0.50
     Davidson diagonalization with overlap
     ethr =  2.17E-05,  avg # of iterations =  2.0

     total cpu time spent up to now is        5.0 secs

     total energy              =    -426.13895251 Ry
     estimated scf accuracy    <       0.00006727 Ry

     iteration #  4     ecut=    30.00 Ry     beta= 0.50
     Davidson diagonalization with overlap
     ethr =  2.40E-07,  avg # of iterations =  3.8

     total cpu time spent up to now is        6.2 secs

     total energy              =    -426.13897444 Ry
     estimated scf accuracy    <       0.00000633 Ry

     iteration #  5     ecut=    30.00 Ry     beta= 0.50
     Davidson diagonalization with overlap
     ethr =  2.26E-08,  avg # of iterations =  2.4

     total cpu time spent up to now is        7.4 secs

     total energy              =    -426.13897556 Ry
     estimated scf accuracy    <       0.00000010 Ry

     iteration #  6     ecut=    30.00 Ry     beta= 0.50
     Davidson diagonalization with overlap
     ethr =  3.60E-10,  avg # of iterations =  4.9

     total cpu time spent up to now is        8.9 secs

     End of self-consistent calculation

          k = 0.0000 0.0000 0.0000 (   869 PWs)   bands (ev):

   -16.8293 -16.8293 -16.8293 -16.8037 -16.8037 -16.6025 -16.6025 -16.6025
   -16.5794 -16.5794  -4.6682   7.9534   8.1478   8.1478

          k = 0.0707 0.0707-0.0707 (   875 PWs)   bands (ev):

   -16.8389 -16.8389 -16.8348 -16.7947 -16.7947 -16.6076 -16.6076 -16.6037
   -16.5746 -16.5746  -4.5463   6.2010   7.9174   7.9174

          k = 0.1414 0.1414-0.1414 (   872 PWs)   bands (ev):

   -16.8531 -16.8531 -16.8262 -16.7790 -16.7790 -16.6166 -16.6166 -16.6026
   -16.5660 -16.5660  -4.1877   4.2792   7.4766   7.4766

          k = 0.2121 0.2121-0.2121 (   848 PWs)   bands (ev):

   -16.8515 -16.8515 -16.8212 -16.7618 -16.7618 -16.6166 -16.6166 -16.6084
   -16.5557 -16.5557  -3.6225   2.5253   7.0847   7.0847

          k = 0.2828 0.2828-0.2828 (   847 PWs)   bands (ev):

   -16.8517 -16.8517 -16.8180 -16.7579 -16.7579 -16.6228 -16.6228 -16.6101
   -16.5518 -16.5518  -2.9585   1.1262   6.8319   6.8319

          k =-0.3536-0.3536 0.3536 (   862 PWs)   bands (ev):

   -16.8537 -16.8537 -16.8211 -16.7615 -16.7615 -16.6266 -16.6266 -16.6116
   -16.5563 -16.5563  -2.5843   0.5038   6.7456   6.7456

          k = 0.1414 0.0000 0.0000 (   873 PWs)   bands (ev):

   -16.8433 -16.8417 -16.8417 -16.7975 -16.7797 -16.6237 -16.5914 -16.5914
   -16.5850 -16.5692  -4.5053   6.1377   7.5208   7.5208

          k = 0.2121 0.0707-0.0707 (   858 PWs)   bands (ev):

   -16.8500 -16.8419 -16.8313 -16.7823 -16.7646 -16.6367 -16.5983 -16.5880
   -16.5733 -16.5618  -4.2240   4.6975   7.0440   7.0618

          k = 0.2828 0.1414-0.1414 (   854 PWs)   bands (ev):

   -16.8569 -16.8483 -16.8231 -16.7697 -16.7521 -16.6447 -16.6096 -16.5969
   -16.5638 -16.5524  -3.7221   3.0145   6.5257   6.6802

          k = 0.3536 0.2121-0.2121 (   848 PWs)   bands (ev):

   -16.8598 -16.8507 -16.8127 -16.7587 -16.7468 -16.6450 -16.6172 -16.6082
   -16.5541 -16.5455  -3.0680   1.5267   6.0712   6.4961

          k =-0.2828-0.4243 0.4243 (   844 PWs)   bands (ev):

   -16.8616 -16.8529 -16.8067 -16.7502 -16.7490 -16.6345 -16.6274 -16.6159
   -16.5469 -16.5411  -2.5231   0.5909   5.7778   6.5086

          k =-0.2121-0.3536 0.3536 (   844 PWs)   bands (ev):

   -16.8575 -16.8557 -16.8053 -16.7543 -16.7468 -16.6350 -16.6226 -16.6194
   -16.5461 -16.5439  -2.6606   0.8092   5.6777   6.7097

          k =-0.1414-0.2828 0.2828 (   851 PWs)   bands (ev):

   -16.8571 -16.8540 -16.8112 -16.7645 -16.7488 -16.6355 -16.6253 -16.6058
   -16.5546 -16.5492  -3.2967   1.9896   5.7950   7.0702

          k =-0.0707-0.2121 0.2121 (   849 PWs)   bands (ev):

   -16.8541 -16.8454 -16.8205 -16.7712 -16.7563 -16.6281 -16.6190 -16.5909
   -16.5659 -16.5531  -3.9134   3.5561   6.1648   7.5243

          k = 0.0000-0.1414 0.1414 (   859 PWs)   bands (ev):

   -16.8442 -16.8371 -16.8297 -16.7880 -16.7723 -16.6201 -16.6108 -16.5842
   -16.5804 -16.5612  -4.3449   5.1372   6.8905   7.9088

          k = 0.2828 0.0000 0.0000 (   853 PWs)   bands (ev):

   -16.8449 -16.8426 -16.8426 -16.7722 -16.7501 -16.6599 -16.5976 -16.5716
   -16.5716 -16.5654  -4.0201   4.2680   6.5432   6.5432

          k = 0.3536 0.0707-0.0707 (   852 PWs)   bands (ev):

   -16.8581 -16.8476 -16.8311 -16.7629 -16.7322 -16.6747 -16.6124 -16.5794
   -16.5620 -16.5540  -3.5875   3.0995   5.9345   6.1632

          k = 0.4243 0.1414-0.1414 (   852 PWs)   bands (ev):

   -16.8667 -16.8528 -16.8149 -16.7510 -16.7221 -16.6822 -16.6233 -16.5989
   -16.5527 -16.5422  -2.9692   1.7862   5.2329   5.9766

          k =-0.2121-0.4950 0.4950 (   847 PWs)   bands (ev):

   -16.8742 -16.8564 -16.7993 -16.7369 -16.7254 -16.6725 -16.6357 -16.6147
   -16.5436 -16.5316  -2.3285   0.7296   4.7027   6.0054

          k =-0.1414-0.4243 0.4243 (   842 PWs)   bands (ev):

   -16.8690 -16.8576 -16.7895 -16.7385 -16.7306 -16.6511 -16.6473 -16.6228
   -16.5423 -16.5319  -2.2062   0.5571   4.4288   6.2431

          k =-0.0707-0.3536 0.3536 (   846 PWs)   bands (ev):

   -16.8680 -16.8600 -16.7921 -16.7538 -16.7293 -16.6511 -16.6335 -16.6238
   -16.5424 -16.5367  -2.7698   1.4247   4.4786   6.6542

          k = 0.0000-0.2828 0.2828 (   857 PWs)   bands (ev):

   -16.8652 -16.8595 -16.8071 -16.7648 -16.7413 -16.6491 -16.6289 -16.6039
   -16.5536 -16.5487  -3.4200   2.5870   4.9990   7.1502

          k = 0.4243 0.0000 0.0000 (   845 PWs)   bands (ev):

   -16.8508 -16.8508 -16.8369 -16.7469 -16.7068 -16.7028 -16.6194 -16.5696
   -16.5552 -16.5552  -3.2234   2.4648   5.7478   5.7478

          k = 0.4950 0.0707-0.0707 (   844 PWs)   bands (ev):

   -16.8618 -16.8542 -16.8194 -16.7317 -16.7179 -16.6918 -16.6334 -16.5890
   -16.5455 -16.5406  -2.6552   1.4981   5.1252   5.5228

          k =-0.1414-0.5657 0.5657 (   842 PWs)   bands (ev):

   -16.8713 -16.8563 -16.7962 -16.7192 -16.7175 -16.6878 -16.6499 -16.6087
   -16.5405 -16.5272  -1.9788   0.5633   4.3327   5.5192

          k =-0.0707-0.4950 0.4950 (   841 PWs)   bands (ev):

   -16.8778 -16.8583 -16.7834 -16.7070 -16.7058 -16.6928 -16.6615 -16.6255
   -16.5369 -16.5231  -1.6360   0.1610   3.8168   5.7362

          k =-0.0000-0.4243 0.4243 (   848 PWs)   bands (ev):

   -16.8770 -16.8667 -16.7810 -16.7287 -16.7127 -16.6667 -16.6644 -16.6295
   -16.5374 -16.5268  -2.1142   0.7164   3.7998   6.1428

          k = 0.5657 0.0000 0.0000 (   846 PWs)   bands (ev):

   -16.8559 -16.8559 -16.8170 -16.7438 -16.7171 -16.6682 -16.6498 -16.5929
   -16.5410 -16.5410  -2.1362   0.7607   5.2469   5.2469

          k =-0.0707-0.6364 0.6364 (   838 PWs)   bands (ev):

   -16.8665 -16.8560 -16.7949 -16.7566 -16.6963 -16.6630 -16.6508 -16.6109
   -16.5343 -16.5302  -1.4617  -0.0451   4.7130   5.1911

          k = 0.0000-0.5657 0.5657 (   842 PWs)   bands (ev):

   -16.8766 -16.8583 -16.7829 -16.7411 -16.6915 -16.6738 -16.6670 -16.6249
   -16.5312 -16.5239  -1.0736  -0.4146   4.0171   5.3619

          k =-0.7071 0.0000 0.0000 (   846 PWs)   bands (ev):

   -16.8604 -16.8604 -16.7848 -16.7848 -16.6845 -16.6845 -16.6258 -16.6258
   -16.5342 -16.5342  -0.7921  -0.7921   5.0768   5.0768

          k = 0.2828 0.1414 0.0000 (   854 PWs)   bands (ev):

   -16.8560 -16.8473 -16.8243 -16.7723 -16.7488 -16.6531 -16.6086 -16.5842
   -16.5688 -16.5562  -3.8680   3.6653   5.9266   6.9861

          k = 0.3536 0.2121-0.0707 (   852 PWs)   bands (ev):

   -16.8631 -16.8553 -16.8108 -16.7614 -16.7362 -16.6618 -16.6182 -16.6024
   -16.5540 -16.5471  -3.3057   2.3306   5.2434   6.6099

          k =-0.2828-0.4243 0.5657 (   844 PWs)   bands (ev):

   -16.8667 -16.8582 -16.7976 -16.7488 -16.7304 -16.6578 -16.6265 -16.6186
   -16.5439 -16.5361  -2.6388   1.0909   4.9180   6.2713

          k =-0.2121-0.3536 0.4950 (   844 PWs)   bands (ev):

   -16.8673 -16.8587 -16.7941 -16.7438 -16.7342 -16.6508 -16.6357 -16.6230
   -16.5424 -16.5348  -2.2549   0.5018   4.8234   6.1421

          k = 0.4243 0.1414-0.0000 (   848 PWs)   bands (ev):

   -16.8621 -16.8565 -16.8179 -16.7486 -16.7143 -16.6926 -16.6223 -16.5909
   -16.5503 -16.5457  -3.0893   2.1649   5.1791   5.8897

          k =-0.2121-0.4950 0.6364 (   845 PWs)   bands (ev):

   -16.8701 -16.8600 -16.7967 -16.7351 -16.7069 -16.6957 -16.6357 -16.6117
   -16.5406 -16.5324  -2.4338   1.1280   4.5392   5.5823

          k =-0.1414-0.4243 0.5657 (   847 PWs)   bands (ev):

   -16.8773 -16.8641 -16.7832 -16.7262 -16.7086 -16.6882 -16.6502 -16.6260
   -16.5374 -16.5267  -1.8733   0.3738   4.1221   5.5276

          k =-0.0707-0.3536 0.4950 (   848 PWs)   bands (ev):

   -16.8759 -16.8647 -16.7811 -16.7344 -16.7113 -16.6778 -16.6496 -16.6309
   -16.5375 -16.5279  -2.0496   0.6020   4.0070   5.7569

          k = 0.0000-0.2828 0.4243 (   843 PWs)   bands (ev):

   -16.8664 -16.8637 -16.7892 -16.7473 -16.7183 -16.6722 -16.6257 -16.6252
   -16.5395 -16.5355  -2.7024   1.4822   4.3325   6.1851

          k =-0.1414-0.5657 0.7071 (   848 PWs)   bands (ev):

   -16.8661 -16.8638 -16.8003 -16.7348 -16.7169 -16.6781 -16.6494 -16.6081
   -16.5357 -16.5343  -2.0370   0.6695   4.7657   5.1086

          k =-0.0707-0.4950 0.6364 (   844 PWs)   bands (ev):

   -16.8765 -16.8630 -16.7774 -16.7325 -16.7011 -16.6733 -16.6652 -16.6301
   -16.5311 -16.5249  -1.3766  -0.0667   4.1420   5.0153

          k =-0.0000-0.4243 0.5657 (   849 PWs)   bands (ev):

   -16.8798 -16.8658 -16.7737 -16.7090 -16.7076 -16.6880 -16.6714 -16.6381
   -16.5323 -16.5237  -1.4156  -0.0094   3.7641   5.2793

          k =-0.7071 0.1414 0.0000 (   844 PWs)   bands (ev):

   -16.8644 -16.8644 -16.7703 -16.7703 -16.6845 -16.6845 -16.6379 -16.6379
   -16.5296 -16.5296  -0.7598  -0.7598   4.7332   4.7332

          k =-0.1414-0.4243 0.7071 (   840 PWs)   bands (ev):

   -16.8710 -16.8697 -16.7725 -16.7213 -16.7087 -16.6876 -16.6524 -16.6299
   -16.5295 -16.5250  -1.7688   0.3923   4.0719   5.0462

          k =-0.0707-0.3536 0.6364 (   852 PWs)   bands (ev):

   -16.8784 -16.8746 -16.7635 -16.7205 -16.7067 -16.6839 -16.6706 -16.6440
   -16.5288 -16.5237  -1.3181  -0.0876   3.9355   4.8088

          k =-0.7071 0.2828 0.0000 (   850 PWs)   bands (ev):

   -16.8768 -16.8768 -16.7458 -16.7458 -16.6881 -16.6881 -16.6571 -16.6571
   -16.5253 -16.5253  -0.7051  -0.7051   4.2986   4.2986

     highest occupied level (ev):     8.1478

!    total energy              =    -426.13897566 Ry
     estimated scf accuracy    <       0.00000003 Ry

     The total energy is the sum of the following terms:
     one-electron contribution =    -278.98048929 Ry
     hartree contribution      =     164.83404748 Ry
     xc contribution           =    -114.49805878 Ry
     ewald contribution        =    -197.49447506 Ry

     convergence has been achieved in   6 iterations

     Forces acting on atoms (cartesian axes, Ry/au):

     atom    1 type  1   force =     0.00000000   -0.00000000   -0.00000000
     atom    2 type  1   force =    -0.00000000    0.00000000    0.00000000

     Total force =     0.000000     Total SCF correction =     0.000000


     Computing stress (Cartesian axis) and pressure

          total   stress  (Ry/bohr**3)                   (kbar)     P=     -160.46
  -0.00109075  -0.00000000  -0.00000000         -160.46       -0.00       -0.00
  -0.00000000  -0.00109075  -0.00000000           -0.00     -160.46       -0.00
  -0.00000000   0.00000000  -0.00109075           -0.00        0.00     -160.46

     Message from routine punch:
     Nothing written, as per user request (disk_io='none')

     init_run     :      0.98s CPU      1.01s WALL (       1 calls)
     electrons    :      7.61s CPU      7.77s WALL (       1 calls)
     forces       :      0.09s CPU      0.09s WALL (       1 calls)
     stress       :      0.58s CPU      0.58s WALL (       1 calls)

     Called by init_run:
     wfcinit      :      0.59s CPU      0.61s WALL (       1 calls)
     potinit      :      0.01s CPU      0.02s WALL (       1 calls)
     hinit0       :      0.34s CPU      0.34s WALL (       1 calls)

     Called by electrons:
     c_bands      :      6.33s CPU      6.46s WALL (       7 calls)
     sum_band     :      1.11s CPU      1.14s WALL (       7 calls)
     v_of_rho     :      0.02s CPU      0.02s WALL (       7 calls)
     newd         :      0.17s CPU      0.17s WALL (       7 calls)
     mix_rho      :      0.01s CPU      0.01s WALL (       7 calls)

     Called by c_bands:
     init_us_2    :      0.26s CPU      0.26s WALL (     799 calls)
     cegterg      :      5.74s CPU      5.86s WALL (     329 calls)

     Called by *egterg:
     cdiaghg      :      0.30s CPU      0.30s WALL (    1118 calls)
     h_psi        :      5.20s CPU      5.31s WALL (    1212 calls)
     s_psi        :      0.14s CPU      0.14s WALL (    1212 calls)
     g_psi        :      0.03s CPU      0.03s WALL (     836 calls)

     Called by h_psi:
     h_psi:calbec :      0.19s CPU      0.19s WALL (    1212 calls)
     vloc_psi     :      4.81s CPU      4.92s WALL (    1212 calls)
     add_vuspsi   :      0.15s CPU      0.15s WALL (    1212 calls)

     General routines
     calbec       :      0.35s CPU      0.36s WALL (    2340 calls)
     fft          :      0.16s CPU      0.16s WALL (      37 calls)
     ffts         :      0.00s CPU      0.00s WALL (       7 calls)
     fftw         :      4.48s CPU      4.58s WALL (   30306 calls)

     Parallel routines

     PWSCF        :      9.41s CPU      9.61s WALL


   This run was terminated on:  23:56: 9   7Oct2025            

=------------------------------------------------------------------------------=
   JOB DONE.
=------------------------------------------------------------------------------=
