
     Program PWSCF v.7.4.1 starts on  8Oct2025 at  2: 4: 7 

     This program is part of the open-source Quantum ESPRESSO suite
     for quantum simulation of materials; please cite
         "P. Giannozzi et al., J. Phys.:Condens. Matter 21 395502 (2009);
         "P. Giannozzi et al., J. Phys.:Condens. Matter 29 465901 (2017);
         "P. Giannozzi et al., J. Chem. Phys. 152 154105 (2020);
          URL http://www.quantum-espresso.org", 
     in publications or presentations arising from this work. More details at
     http://www.quantum-espresso.org/quote

     Parallel version (MPI), running on     1 processors

     MPI processes distributed on     1 nodes
     451 MiB available memory on the printing compute node when the environment starts

     Waiting for input...
     Reading input from standard input
Warning: card &CELL ignored
Warning: card / ignored

     Current dimensions of program PWSCF are:
     Max number of different atomic species (ntypx) = 10
     Max number of k-points (npk) =  40000
     Max angular momentum in pseudopotentials (lmaxx) =  4
     Message from routine setup:
     using ibrav=0 with symmetry is DISCOURAGED, use correct ibrav instead

     Subspace diagonalization in iterative solution of the eigenvalue problem:
     a serial algorithm will be used


     G-vector sticks info
     --------------------
     sticks:   dense  smooth     PW     G-vecs:    dense   smooth      PW
     Sum         367     367    121                 4645     4645     893

     Using Slab Decomposition



     bravais-lattice index     =            0
     lattice parameter (alat)  =       7.2751  a.u.
     unit-cell volume          =     272.2685 (a.u.)^3
     number of atoms/cell      =            2
     number of atomic types    =            1
     number of electrons       =        28.00
     number of Kohn-Sham states=           14
     kinetic-energy cutoff     =      25.0000  Ry
     charge density cutoff     =     100.0000  Ry
     scf convergence threshold =      1.0E-07
     mixing beta               =       0.5000
     number of iterations used =            8  plain     mixing
     Exchange-correlation=  SLA  PZ   NOGX NOGC
                           (   1   1   0   0   0   0   0)

     celldm(1)=   7.275074  celldm(2)=   0.000000  celldm(3)=   0.000000
     celldm(4)=   0.000000  celldm(5)=   0.000000  celldm(6)=   0.000000

     crystal axes: (cart. coord. in units of alat)
               a(1) = (   0.000000   0.707107   0.707107 )  
               a(2) = (   0.707107   0.000000   0.707107 )  
               a(3) = (   0.707107   0.707107   0.000000 )  

     reciprocal axes: (cart. coord. in units 2 pi/alat)
               b(1) = ( -0.707107  0.707107  0.707107 )  
               b(2) = (  0.707107 -0.707107  0.707107 )  
               b(3) = (  0.707107  0.707107 -0.707107 )  


     PseudoPot. # 1 for Ge read from file:
     /home/bond/Software/QE/qe-7.4.1/pseudo/ge_lda_v1.4.uspp.F.UPF
     MD5 check sum: bf9d52b59cc8a669818bb2b52e0c2ba0
     Pseudo is Ultrasoft + core correction, Zval = 14.0
     Generated by new atomic code, or converted to UPF format
     Using radial grid of  873 points,  6 beta functions with: 
                l(1) =   0
                l(2) =   0
                l(3) =   1
                l(4) =   1
                l(5) =   2
                l(6) =   2
     Q(r) pseudized with  8 coefficients,  rinner =    1.400   1.400   1.400
                                                       1.400   1.400

     atomic species   valence    mass     pseudopotential
     Ge               14.00    72.63000     Ge( 1.00)

     48 Sym. Ops., with inversion, found (24 have fractional translation)



   Cartesian axes

     site n.     atom                  positions (alat units)
         1        Ge     tau(   1) = (   0.0000000   0.0000000   0.0000000  )
         2        Ge     tau(   2) = (   0.3535531   0.3535531   0.3535531  )

     number of k points=    47
                       cart. coord. in units 2pi/alat
        k(    1) = (   0.0000000   0.0000000   0.0000000), wk =   0.0020000
        k(    2) = (   0.0707107   0.0707107  -0.0707107), wk =   0.0160000
        k(    3) = (   0.1414214   0.1414214  -0.1414214), wk =   0.0160000
        k(    4) = (   0.2121320   0.2121320  -0.2121320), wk =   0.0160000
        k(    5) = (   0.2828427   0.2828427  -0.2828427), wk =   0.0160000
        k(    6) = (  -0.3535534  -0.3535534   0.3535534), wk =   0.0080000
        k(    7) = (   0.1414214   0.0000000   0.0000000), wk =   0.0120000
        k(    8) = (   0.2121320   0.0707107  -0.0707107), wk =   0.0480000
        k(    9) = (   0.2828427   0.1414214  -0.1414214), wk =   0.0480000
        k(   10) = (   0.3535534   0.2121320  -0.2121320), wk =   0.0480000
        k(   11) = (  -0.2828427  -0.4242641   0.4242641), wk =   0.0480000
        k(   12) = (  -0.2121320  -0.3535534   0.3535534), wk =   0.0480000
        k(   13) = (  -0.1414214  -0.2828427   0.2828427), wk =   0.0480000
        k(   14) = (  -0.0707107  -0.2121320   0.2121320), wk =   0.0480000
        k(   15) = (   0.0000000  -0.1414214   0.1414214), wk =   0.0240000
        k(   16) = (   0.2828427   0.0000000   0.0000000), wk =   0.0120000
        k(   17) = (   0.3535534   0.0707107  -0.0707107), wk =   0.0480000
        k(   18) = (   0.4242641   0.1414214  -0.1414214), wk =   0.0480000
        k(   19) = (  -0.2121320  -0.4949747   0.4949747), wk =   0.0480000
        k(   20) = (  -0.1414214  -0.4242641   0.4242641), wk =   0.0480000
        k(   21) = (  -0.0707107  -0.3535534   0.3535534), wk =   0.0480000
        k(   22) = (   0.0000000  -0.2828427   0.2828427), wk =   0.0240000
        k(   23) = (   0.4242641   0.0000000   0.0000000), wk =   0.0120000
        k(   24) = (   0.4949747   0.0707107  -0.0707107), wk =   0.0480000
        k(   25) = (  -0.1414214  -0.5656854   0.5656854), wk =   0.0480000
        k(   26) = (  -0.0707107  -0.4949747   0.4949747), wk =   0.0480000
        k(   27) = (  -0.0000000  -0.4242641   0.4242641), wk =   0.0240000
        k(   28) = (   0.5656854   0.0000000   0.0000000), wk =   0.0120000
        k(   29) = (  -0.0707107  -0.6363961   0.6363961), wk =   0.0480000
        k(   30) = (   0.0000000  -0.5656854   0.5656854), wk =   0.0240000
        k(   31) = (  -0.7071068   0.0000000   0.0000000), wk =   0.0060000
        k(   32) = (   0.2828427   0.1414214   0.0000000), wk =   0.0480000
        k(   33) = (   0.3535534   0.2121320  -0.0707107), wk =   0.0960000
        k(   34) = (  -0.2828427  -0.4242641   0.5656854), wk =   0.0960000
        k(   35) = (  -0.2121320  -0.3535534   0.4949747), wk =   0.0480000
        k(   36) = (   0.4242641   0.1414214  -0.0000000), wk =   0.0480000
        k(   37) = (  -0.2121320  -0.4949747   0.6363961), wk =   0.0960000
        k(   38) = (  -0.1414214  -0.4242641   0.5656854), wk =   0.0960000
        k(   39) = (  -0.0707107  -0.3535534   0.4949747), wk =   0.0960000
        k(   40) = (   0.0000000  -0.2828427   0.4242641), wk =   0.0480000
        k(   41) = (  -0.1414214  -0.5656854   0.7071068), wk =   0.0480000
        k(   42) = (  -0.0707107  -0.4949747   0.6363961), wk =   0.0960000
        k(   43) = (  -0.0000000  -0.4242641   0.5656854), wk =   0.0480000
        k(   44) = (  -0.7071068   0.1414214   0.0000000), wk =   0.0240000
        k(   45) = (  -0.1414214  -0.4242641   0.7071068), wk =   0.0480000
        k(   46) = (  -0.0707107  -0.3535534   0.6363961), wk =   0.0480000
        k(   47) = (  -0.7071068   0.2828427   0.0000000), wk =   0.0240000

     Dense  grid:     4645 G-vectors     FFT dimensions: (  24,  24,  24)

     Estimated max dynamical RAM per process >      24.14 MB

     Check: negative core charge=   -0.000652

     Initial potential from superposition of free atoms

     starting charge      27.9986, renormalised to      28.0000
     Starting wfcs are   18 randomized atomic wfcs

     total cpu time spent up to now is        1.0 secs

     Self-consistent Calculation

     iteration #  1     ecut=    25.00 Ry     beta= 0.50
     Davidson diagonalization with overlap
     ethr =  1.00E-02,  avg # of iterations =  2.0

     Threshold (ethr) on eigenvalues was too large:
     Diagonalizing with lowered threshold

     Davidson diagonalization with overlap
     ethr =  1.89E-04,  avg # of iterations =  1.8

     total cpu time spent up to now is        2.3 secs

     total energy              =    -425.91212703 Ry
     estimated scf accuracy    <       0.05650766 Ry

     iteration #  2     ecut=    25.00 Ry     beta= 0.50
     Davidson diagonalization with overlap
     ethr =  2.02E-04,  avg # of iterations =  1.0

     total cpu time spent up to now is        2.9 secs

     total energy              =    -425.91237731 Ry
     estimated scf accuracy    <       0.00763051 Ry

     iteration #  3     ecut=    25.00 Ry     beta= 0.50
     Davidson diagonalization with overlap
     ethr =  2.73E-05,  avg # of iterations =  2.0

     total cpu time spent up to now is        3.6 secs

     total energy              =    -425.91310755 Ry
     estimated scf accuracy    <       0.00010709 Ry

     iteration #  4     ecut=    25.00 Ry     beta= 0.50
     Davidson diagonalization with overlap
     ethr =  3.82E-07,  avg # of iterations =  3.6

     total cpu time spent up to now is        4.4 secs

     total energy              =    -425.91314231 Ry
     estimated scf accuracy    <       0.00000960 Ry

     iteration #  5     ecut=    25.00 Ry     beta= 0.50
     Davidson diagonalization with overlap
     ethr =  3.43E-08,  avg # of iterations =  2.2

     total cpu time spent up to now is        5.2 secs

     total energy              =    -425.91314367 Ry
     estimated scf accuracy    <       0.00000029 Ry

     iteration #  6     ecut=    25.00 Ry     beta= 0.50
     Davidson diagonalization with overlap
     ethr =  1.04E-09,  avg # of iterations =  3.5

     total cpu time spent up to now is        6.2 secs

     End of self-consistent calculation

          k = 0.0000 0.0000 0.0000 (   561 PWs)   bands (ev):

   -15.8124 -15.8124 -15.8124 -15.6420 -15.6420 -15.4447 -15.4447 -15.3727
   -15.3727 -15.3727  -3.9880   9.7502   9.7503   9.7503

          k = 0.0707 0.0707-0.0707 (   570 PWs)   bands (ev):

   -15.8011 -15.8011 -15.7942 -15.7178 -15.7178 -15.4471 -15.4471 -15.4250
   -15.3918 -15.3918  -3.8523   7.9785   9.4807   9.4808

          k = 0.1414 0.1414-0.1414 (   567 PWs)   bands (ev):

   -15.8087 -15.8087 -15.7842 -15.7053 -15.7053 -15.4457 -15.4457 -15.4341
   -15.3643 -15.3643  -3.4517   5.8094   8.9787   8.9788

          k = 0.2121 0.2121-0.2121 (   571 PWs)   bands (ev):

   -15.8209 -15.8209 -15.7799 -15.6944 -15.6944 -15.4668 -15.4668 -15.4151
   -15.3656 -15.3656  -2.8155   3.8355   8.5403   8.5404

          k = 0.2828 0.2828-0.2828 (   589 PWs)   bands (ev):

   -15.8681 -15.8681 -15.7893 -15.6972 -15.6972 -15.5112 -15.5112 -15.4621
   -15.3975 -15.3975  -2.0534   2.2494   8.2598   8.2599

          k =-0.3536-0.3536 0.3536 (   580 PWs)   bands (ev):

   -15.8433 -15.8433 -15.7709 -15.6928 -15.6928 -15.4858 -15.4858 -15.4142
   -15.4142 -15.4001  -1.6081   1.5267   8.1646   8.1646

          k = 0.1414 0.0000 0.0000 (   564 PWs)   bands (ev):

   -15.7976 -15.7976 -15.7916 -15.6978 -15.6263 -15.4543 -15.4322 -15.4163
   -15.4163 -15.3957  -3.8067   8.0378   9.0140   9.0141

          k = 0.2121 0.0707-0.0707 (   569 PWs)   bands (ev):

   -15.8132 -15.8006 -15.7876 -15.7004 -15.6868 -15.4831 -15.4425 -15.4292
   -15.4027 -15.3618  -3.4931   6.3579   8.4732   8.5557

          k = 0.2828 0.1414-0.1414 (   575 PWs)   bands (ev):

   -15.8281 -15.8266 -15.7758 -15.7010 -15.6890 -15.5089 -15.4537 -15.4528
   -15.3881 -15.3501  -2.9301   4.4301   7.9870   8.0682

          k = 0.3536 0.2121-0.2121 (   582 PWs)   bands (ev):

   -15.8561 -15.8474 -15.7698 -15.6959 -15.6730 -15.5261 -15.4888 -15.4567
   -15.3932 -15.3606  -2.1861   2.7372   7.4898   7.8680

          k =-0.2828-0.4243 0.4243 (   573 PWs)   bands (ev):

   -15.8391 -15.8349 -15.7445 -15.6741 -15.6729 -15.5095 -15.4732 -15.4258
   -15.3756 -15.3491  -1.5461   1.6553   7.1585   7.8888

          k =-0.2121-0.3536 0.3536 (   577 PWs)   bands (ev):

   -15.8472 -15.8341 -15.7588 -15.6839 -15.6716 -15.4990 -15.4843 -15.4551
   -15.3721 -15.3703  -1.7103   1.9106   7.0317   8.1205

          k =-0.1414-0.2828 0.2828 (   581 PWs)   bands (ev):

   -15.8574 -15.8365 -15.7817 -15.6990 -15.6841 -15.5162 -15.4813 -15.4514
   -15.3836 -15.3676  -2.4476   3.2650   7.1367   8.5307

          k =-0.0707-0.2121 0.2121 (   572 PWs)   bands (ev):

   -15.8273 -15.8216 -15.7748 -15.6895 -15.6790 -15.4919 -15.4663 -15.4464
   -15.3835 -15.3599  -3.1449   5.0485   7.5097   9.0471

          k = 0.0000-0.1414 0.1414 (   559 PWs)   bands (ev):

   -15.8025 -15.7997 -15.7843 -15.7030 -15.6458 -15.4505 -15.4277 -15.4097
   -15.3833 -15.3162  -3.6277   6.8426   8.2883   9.4849

          k = 0.2828 0.0000 0.0000 (   572 PWs)   bands (ev):

   -15.8103 -15.8103 -15.7972 -15.6783 -15.6593 -15.5339 -15.4466 -15.4217
   -15.4003 -15.4003  -3.2663   5.9904   7.9045   7.9045

          k = 0.3536 0.0707-0.0707 (   572 PWs)   bands (ev):

   -15.8241 -15.8214 -15.7668 -15.6497 -15.6389 -15.5557 -15.4640 -15.4363
   -15.3803 -15.3717  -2.7827   4.6528   7.2457   7.4794

          k = 0.4243 0.1414-0.1414 (   572 PWs)   bands (ev):

   -15.8458 -15.8215 -15.7576 -15.6484 -15.6327 -15.5402 -15.4721 -15.4401
   -15.3843 -15.3204  -2.0845   3.1374   6.4889   7.2743

          k =-0.2121-0.4950 0.4950 (   570 PWs)   bands (ev):

   -15.8427 -15.8337 -15.7312 -15.6502 -15.6061 -15.5358 -15.4961 -15.4457
   -15.3602 -15.3118  -1.3438   1.9102   5.9072   7.3117

          k =-0.1414-0.4243 0.4243 (   572 PWs)   bands (ev):

   -15.8451 -15.8374 -15.7263 -15.6412 -15.6285 -15.5163 -15.5047 -15.4833
   -15.3529 -15.3238  -1.1959   1.7038   5.5895   7.5841

          k =-0.0707-0.3536 0.3536 (   577 PWs)   bands (ev):

   -15.8558 -15.8417 -15.7467 -15.6521 -15.6418 -15.5408 -15.5132 -15.4867
   -15.3579 -15.3172  -1.8524   2.7169   5.6100   8.0529

          k = 0.0000-0.2828 0.2828 (   572 PWs)   bands (ev):

   -15.8401 -15.8141 -15.7612 -15.6939 -15.6551 -15.5034 -15.4713 -15.4480
   -15.3706 -15.3301  -2.5906   4.0363   6.1610   8.6201

          k = 0.4243 0.0000 0.0000 (   576 PWs)   bands (ev):

   -15.8427 -15.8427 -15.7762 -15.6294 -15.6048 -15.5805 -15.4932 -15.4206
   -15.3836 -15.3836  -2.3777   3.9892   7.0122   7.0122

          k = 0.4950 0.0707-0.0707 (   579 PWs)   bands (ev):

   -15.8657 -15.8434 -15.7584 -15.6145 -15.6122 -15.5825 -15.5125 -15.4398
   -15.3799 -15.3637  -1.7402   2.9026   6.3059   6.7618

          k =-0.1414-0.5657 0.5657 (   578 PWs)   bands (ev):

   -15.8578 -15.8567 -15.7244 -15.6224 -15.6188 -15.5730 -15.5234 -15.4591
   -15.3550 -15.3462  -0.9691   1.8401   5.4071   6.7605

          k =-0.0707-0.4950 0.4950 (   579 PWs)   bands (ev):

   -15.8660 -15.8501 -15.7337 -15.5951 -15.5935 -15.5817 -15.5419 -15.5130
   -15.3479 -15.3272  -0.5596   1.3649   4.8178   7.0074

          k =-0.0000-0.4243 0.4243 (   576 PWs)   bands (ev):

   -15.8447 -15.8442 -15.7347 -15.6423 -15.6123 -15.5671 -15.5140 -15.4964
   -15.3345 -15.3227  -1.1073   1.9889   4.7952   7.4692

          k = 0.5657 0.0000 0.0000 (   568 PWs)   bands (ev):

   -15.8374 -15.8374 -15.7452 -15.6378 -15.5791 -15.5358 -15.5222 -15.4334
   -15.3040 -15.3040  -1.1623   2.0839   6.4524   6.4525

          k =-0.0707-0.6364 0.6364 (   578 PWs)   bands (ev):

   -15.8628 -15.8543 -15.7241 -15.6630 -15.6119 -15.5525 -15.5177 -15.4561
   -15.3466 -15.3190  -0.4024   1.1834   5.8335   6.3909

          k = 0.0000-0.5657 0.5657 (   586 PWs)   bands (ev):

   -15.8694 -15.8526 -15.7400 -15.6609 -15.5892 -15.5653 -15.5522 -15.5271
   -15.3553 -15.3502   0.0619   0.7546   5.0262   6.5842

          k =-0.7071 0.0000 0.0000 (   588 PWs)   bands (ev):

   -15.8743 -15.8743 -15.7209 -15.7208 -15.5907 -15.5905 -15.5044 -15.5043
   -15.3621 -15.3620   0.3431   0.3432   6.2624   6.2624

          k = 0.2828 0.1414 0.0000 (   572 PWs)   bands (ev):

   -15.8266 -15.8221 -15.7779 -15.6782 -15.6723 -15.5227 -15.4465 -15.4404
   -15.3824 -15.3616  -3.0953   5.2486   7.2033   8.4479

          k = 0.3536 0.2121-0.0707 (   575 PWs)   bands (ev):

   -15.8517 -15.8311 -15.7655 -15.6615 -15.6533 -15.5430 -15.4751 -15.4477
   -15.3803 -15.3319  -2.4625   3.7298   6.4744   8.0095

          k =-0.2828-0.4243 0.5657 (   578 PWs)   bands (ev):

   -15.8517 -15.8390 -15.7613 -15.6649 -15.6481 -15.5384 -15.4869 -15.4607
   -15.3772 -15.3478  -1.6991   2.2992   6.1558   7.6127

          k =-0.2121-0.3536 0.4950 (   574 PWs)   bands (ev):

   -15.8390 -15.8271 -15.7345 -15.6651 -15.6554 -15.4943 -15.4915 -15.4619
   -15.3876 -15.3379  -1.2449   1.6076   6.0674   7.4600

          k = 0.4243 0.1414-0.0000 (   577 PWs)   bands (ev):

   -15.8417 -15.8388 -15.7678 -15.6457 -15.6207 -15.5756 -15.4934 -15.4354
   -15.3771 -15.3638  -2.2242   3.6296   6.3655   7.1767

          k =-0.2121-0.4950 0.6364 (   576 PWs)   bands (ev):

   -15.8491 -15.8424 -15.7449 -15.6320 -15.5947 -15.5764 -15.5193 -15.4560
   -15.3617 -15.3418  -1.4813   2.4557   5.6596   6.8167

          k =-0.1414-0.4243 0.5657 (   570 PWs)   bands (ev):

   -15.8478 -15.8416 -15.7142 -15.6124 -15.5925 -15.5614 -15.5041 -15.4657
   -15.3452 -15.3117  -0.8284   1.5767   5.2007   6.7531

          k =-0.0707-0.3536 0.4950 (   571 PWs)   bands (ev):

   -15.8440 -15.8400 -15.7205 -15.6225 -15.6007 -15.5531 -15.5216 -15.4692
   -15.3355 -15.3164  -1.0320   1.8417   5.0565   7.0184

          k = 0.0000-0.2828 0.4243 (   574 PWs)   bands (ev):

   -15.8496 -15.8318 -15.7382 -15.6749 -15.6192 -15.5489 -15.4922 -15.4516
   -15.3441 -15.3437  -1.7810   2.8406   5.4077   7.5127

          k =-0.1414-0.5657 0.7071 (   577 PWs)   bands (ev):

   -15.8512 -15.8460 -15.7345 -15.6394 -15.6048 -15.5603 -15.5291 -15.4503
   -15.3562 -15.3475  -1.0448   1.9845   5.8984   6.2772

          k =-0.0707-0.4950 0.6364 (   576 PWs)   bands (ev):

   -15.8541 -15.8509 -15.6937 -15.6370 -15.6030 -15.5572 -15.5450 -15.4856
   -15.3391 -15.3198  -0.2890   1.1591   5.1738   6.1730

          k =-0.0000-0.4243 0.5657 (   577 PWs)   bands (ev):

   -15.8677 -15.8557 -15.7085 -15.5995 -15.5903 -15.5767 -15.5467 -15.5084
   -15.3287 -15.3187  -0.3154   1.2073   4.7395   6.4742

          k =-0.7071 0.1414 0.0000 (   578 PWs)   bands (ev):

   -15.8564 -15.8563 -15.6916 -15.6916 -15.5782 -15.5780 -15.5121 -15.5121
   -15.3192 -15.3191   0.3880   0.3881   5.8557   5.8557

          k =-0.1414-0.4243 0.7071 (   571 PWs)   bands (ev):

   -15.8493 -15.8443 -15.7037 -15.6106 -15.5861 -15.5703 -15.5231 -15.4620
   -15.3398 -15.3204  -0.7270   1.6691   5.1015   6.1961

          k =-0.0707-0.3536 0.6364 (   570 PWs)   bands (ev):

   -15.8555 -15.8478 -15.6742 -15.6053 -15.5789 -15.5602 -15.5485 -15.4832
   -15.3097 -15.3021  -0.2086   1.1308   4.9413   5.9236

          k =-0.7071 0.2828 0.0000 (   582 PWs)   bands (ev):

   -15.8645 -15.8645 -15.6683 -15.6683 -15.5883 -15.5881 -15.5226 -15.5225
   -15.3448 -15.3448   0.4652   0.4653   5.3439   5.3440

     highest occupied level (ev):     9.7503

!    total energy              =    -425.91314385 Ry
     estimated scf accuracy    <       0.00000003 Ry

     The total energy is the sum of the following terms:
     one-electron contribution =    -265.41319347 Ry
     hartree contribution      =     159.20824139 Ry
     xc contribution           =    -114.46709670 Ry
     ewald contribution        =    -205.24109508 Ry

     convergence has been achieved in   6 iterations

     Forces acting on atoms (cartesian axes, Ry/au):

     atom    1 type  1   force =    -0.00000000   -0.00000000   -0.00000000
     atom    2 type  1   force =     0.00000000    0.00000000    0.00000000

     Total force =     0.000000     Total SCF correction =     0.000000


     Computing stress (Cartesian axis) and pressure

          total   stress  (Ry/bohr**3)                   (kbar)     P=     -755.42
  -0.00513523  -0.00000000  -0.00000000         -755.42       -0.00       -0.00
  -0.00000000  -0.00513523  -0.00000000           -0.00     -755.42       -0.00
  -0.00000000  -0.00000000  -0.00513523           -0.00       -0.00     -755.42

     Message from routine punch:
     Nothing written, as per user request (disk_io='none')

     init_run     :      0.79s CPU      0.80s WALL (       1 calls)
     electrons    :      5.10s CPU      5.22s WALL (       1 calls)
     forces       :      0.06s CPU      0.06s WALL (       1 calls)
     stress       :      0.40s CPU      0.40s WALL (       1 calls)

     Called by init_run:
     wfcinit      :      0.43s CPU      0.44s WALL (       1 calls)
     potinit      :      0.01s CPU      0.01s WALL (       1 calls)
     hinit0       :      0.33s CPU      0.33s WALL (       1 calls)

     Called by electrons:
     c_bands      :      4.21s CPU      4.30s WALL (       7 calls)
     sum_band     :      0.78s CPU      0.81s WALL (       7 calls)
     v_of_rho     :      0.01s CPU      0.01s WALL (       7 calls)
     newd         :      0.10s CPU      0.11s WALL (       7 calls)
     mix_rho      :      0.00s CPU      0.00s WALL (       7 calls)

     Called by c_bands:
     init_us_2    :      0.17s CPU      0.17s WALL (     799 calls)
     cegterg      :      3.83s CPU      3.90s WALL (     329 calls)

     Called by *egterg:
     cdiaghg      :      0.27s CPU      0.27s WALL (    1042 calls)
     h_psi        :      3.43s CPU      3.49s WALL (    1136 calls)
     s_psi        :      0.09s CPU      0.09s WALL (    1136 calls)
     g_psi        :      0.02s CPU      0.02s WALL (     760 calls)

     Called by h_psi:
     h_psi:calbec :      0.13s CPU      0.13s WALL (    1136 calls)
     vloc_psi     :      3.17s CPU      3.23s WALL (    1136 calls)
     add_vuspsi   :      0.10s CPU      0.10s WALL (    1136 calls)

     General routines
     calbec       :      0.23s CPU      0.24s WALL (    2264 calls)
     fft          :      0.16s CPU      0.17s WALL (      37 calls)
     ffts         :      0.00s CPU      0.00s WALL (       7 calls)
     fftw         :      3.22s CPU      3.29s WALL (   29476 calls)

     Parallel routines

     PWSCF        :      6.47s CPU      6.63s WALL


   This run was terminated on:   2: 4:13   8Oct2025            

=------------------------------------------------------------------------------=
   JOB DONE.
=------------------------------------------------------------------------------=
