
     Program PWSCF v.7.4.1 starts on 21Oct2025 at 12:52:26 

     This program is part of the open-source Quantum ESPRESSO suite
     for quantum simulation of materials; please cite
         "P. Giannozzi et al., J. Phys.:Condens. Matter 21 395502 (2009);
         "P. Giannozzi et al., J. Phys.:Condens. Matter 29 465901 (2017);
         "P. Giannozzi et al., J. Chem. Phys. 152 154105 (2020);
          URL http://www.quantum-espresso.org", 
     in publications or presentations arising from this work. More details at
     http://www.quantum-espresso.org/quote

     Parallel version (MPI), running on     2 processors

     MPI processes distributed on     1 nodes
     428 MiB available memory on the printing compute node when the environment starts

     Waiting for input...
     Reading input from standard input
Warning: card &CELL ignored
Warning: card / ignored

     Current dimensions of program PWSCF are:
     Max number of different atomic species (ntypx) = 10
     Max number of k-points (npk) =  40000
     Max angular momentum in pseudopotentials (lmaxx) =  4
     file O.pz-rrkjus.UPF: wavefunction(s)  2S renormalized
     Message from routine setup:
     using ibrav=0 with symmetry is DISCOURAGED, use correct ibrav instead

     R & G space division:  proc/nbgrp/npool/nimage =       2
     Subspace diagonalization in iterative solution of the eigenvalue problem:
     a serial algorithm will be used


     Parallelization info
     --------------------
     sticks:   dense  smooth     PW     G-vecs:    dense   smooth      PW
     Min         516     254     74                12286     4354     709
     Max         517     255     75                12287     4355     710
     Sum        1033     509    149                24573     8709    1419

     Using Slab Decomposition



     bravais-lattice index     =            0
     lattice parameter (alat)  =       7.3227  a.u.
     unit-cell volume          =     392.6555 (a.u.)^3
     number of atoms/cell      =            5
     number of atomic types    =            3
     number of electrons       =        44.00
     number of Kohn-Sham states=           22
     kinetic-energy cutoff     =      30.0000  Ry
     charge density cutoff     =     240.0000  Ry
     scf convergence threshold =      1.0E-07
     mixing beta               =       0.7000
     number of iterations used =            8  plain     mixing
     energy convergence thresh.=      1.0E-04
     force convergence thresh. =      1.0E-03
     Exchange-correlation= SLA  PZ   NOGX NOGC
                           (   1   1   0   0   0   0   0)
     nstep                     =           50


     celldm(1)=   7.322689  celldm(2)=   0.000000  celldm(3)=   0.000000
     celldm(4)=   0.000000  celldm(5)=   0.000000  celldm(6)=   0.000000

     crystal axes: (cart. coord. in units of alat)
               a(1) = (   1.000000   0.000000   0.000000 )  
               a(2) = (   0.000000   1.000000   0.000000 )  
               a(3) = (   0.000000   0.000000   1.000000 )  

     reciprocal axes: (cart. coord. in units 2 pi/alat)
               b(1) = (  1.000000  0.000000  0.000000 )  
               b(2) = (  0.000000  1.000000  0.000000 )  
               b(3) = (  0.000000  0.000000  1.000000 )  


     PseudoPot. # 1 for O  read from file:
     /home/bond/Software/QE/qe-7.4.1/pseudo/O.pz-rrkjus.UPF
     MD5 check sum: 24fb942a68ef5d262e498166c462ef4a
     Pseudo is Ultrasoft, Zval =  6.0
     Generated by new atomic code, or converted to UPF format
     Using radial grid of 1269 points,  4 beta functions with: 
                l(1) =   0
                l(2) =   0
                l(3) =   1
                l(4) =   1
     Q(r) pseudized with 0 coefficients 


     PseudoPot. # 2 for Pb read from file:
     /home/bond/Software/QE/qe-7.4.1/pseudo/Pb.pz-d-van.UPF
     MD5 check sum: 4e1e5920686a026ae26139ac417581ff
     Pseudo is Ultrasoft, Zval = 14.0
     Generated by new atomic code, or converted to UPF format
     Using radial grid of  899 points,  6 beta functions with: 
                l(1) =   0
                l(2) =   0
                l(3) =   1
                l(4) =   1
                l(5) =   2
                l(6) =   2
     Q(r) pseudized with  8 coefficients,  rinner =    1.000   1.000   1.000
                                                       1.000   1.000

     PseudoPot. # 3 for Ti read from file:
     /home/bond/Software/QE/qe-7.4.1/pseudo/Ti.pz-sp-van_ak.UPF
     MD5 check sum: 545d0e6e05332b8871a8093f427cb0ca
     Pseudo is Ultrasoft, Zval = 12.0
     Generated by new atomic code, or converted to UPF format
     Using radial grid of  851 points,  6 beta functions with: 
                l(1) =   0
                l(2) =   0
                l(3) =   1
                l(4) =   1
                l(5) =   2
                l(6) =   2
     Q(r) pseudized with  8 coefficients,  rinner =    1.000   1.000   1.000
                                                       1.000   1.000

     atomic species   valence    mass     pseudopotential
     O                 6.00    15.99900     O ( 1.00)
     Pb               14.00   207.20000     Pb( 1.00)
     Ti               12.00    47.86700     Ti( 1.00)

      8 Sym. Ops. (no inversion) found



   Cartesian axes

     site n.     atom                  positions (alat units)
         1        Pb     tau(   1) = (   0.0000000   0.0000000   0.0000000  )
         2        Ti     tau(   2) = (   0.5000000   0.5000000   0.4649987  )
         3        O      tau(   3) = (   0.0000000   0.5000000   0.5000000  )
         4        O      tau(   4) = (   0.5000000   0.0000000   0.5000000  )
         5        O      tau(   5) = (   0.5000000   0.5000000   0.0000000  )

     number of k points=     6
                       cart. coord. in units 2pi/alat
        k(    1) = (   0.1250000   0.1250000   0.1250000), wk =   0.2500000
        k(    2) = (   0.1250000   0.1250000   0.3750000), wk =   0.2500000
        k(    3) = (   0.1250000   0.3750000   0.3750000), wk =   0.5000000
        k(    4) = (   0.3750000   0.3750000   0.3750000), wk =   0.2500000
        k(    5) = (   0.3750000  -0.1250000   0.1250000), wk =   0.5000000
        k(    6) = (   0.3750000  -0.3750000   0.1250000), wk =   0.2500000

     Dense  grid:    24573 G-vectors     FFT dimensions: (  40,  40,  40)

     Smooth grid:     8709 G-vectors     FFT dimensions: (  25,  25,  25)

     Estimated max dynamical RAM per process >      51.19 MB

     Estimated total dynamical RAM >     102.38 MB

     Initial potential from superposition of free atoms

     starting charge      42.9982, renormalised to      44.0000
     Starting wfcs are   31 randomized atomic wfcs

     total cpu time spent up to now is        1.7 secs

     Self-consistent Calculation

     iteration #  1     ecut=    30.00 Ry     beta= 0.70
     Davidson diagonalization with overlap
     ethr =  1.00E-02,  avg # of iterations =  2.0

     total cpu time spent up to now is        2.2 secs

     total energy              =    -332.62254042 Ry
     estimated scf accuracy    <       1.09009861 Ry

     iteration #  2     ecut=    30.00 Ry     beta= 0.70
     Davidson diagonalization with overlap
     ethr =  2.48E-03,  avg # of iterations =  6.3

     total cpu time spent up to now is        2.8 secs

     total energy              =    -332.43521296 Ry
     estimated scf accuracy    <       3.81647699 Ry

     iteration #  3     ecut=    30.00 Ry     beta= 0.70
     Davidson diagonalization with overlap
     ethr =  2.48E-03,  avg # of iterations =  5.2

     total cpu time spent up to now is        3.3 secs

     total energy              =    -333.15605358 Ry
     estimated scf accuracy    <       0.20743178 Ry

     iteration #  4     ecut=    30.00 Ry     beta= 0.70
     Davidson diagonalization with overlap
     ethr =  4.71E-04,  avg # of iterations =  2.0

     total cpu time spent up to now is        3.8 secs

     total energy              =    -333.15421060 Ry
     estimated scf accuracy    <       0.05477573 Ry

     iteration #  5     ecut=    30.00 Ry     beta= 0.70
     Davidson diagonalization with overlap
     ethr =  1.24E-04,  avg # of iterations =  4.8

     total cpu time spent up to now is        4.4 secs

     total energy              =    -333.18058151 Ry
     estimated scf accuracy    <       0.02460869 Ry

     iteration #  6     ecut=    30.00 Ry     beta= 0.70
     Davidson diagonalization with overlap
     ethr =  5.59E-05,  avg # of iterations =  1.8

     total cpu time spent up to now is        4.8 secs

     total energy              =    -333.17843569 Ry
     estimated scf accuracy    <       0.01032068 Ry

     iteration #  7     ecut=    30.00 Ry     beta= 0.70
     Davidson diagonalization with overlap
     ethr =  2.35E-05,  avg # of iterations =  4.2

     total cpu time spent up to now is        5.3 secs

     total energy              =    -333.18112590 Ry
     estimated scf accuracy    <       0.00007906 Ry

     iteration #  8     ecut=    30.00 Ry     beta= 0.70
     Davidson diagonalization with overlap
     ethr =  1.80E-07,  avg # of iterations =  6.5

     total cpu time spent up to now is        5.8 secs

     total energy              =    -333.18116614 Ry
     estimated scf accuracy    <       0.00026022 Ry

     iteration #  9     ecut=    30.00 Ry     beta= 0.70
     Davidson diagonalization with overlap
     ethr =  1.80E-07,  avg # of iterations =  2.7

     total cpu time spent up to now is        6.1 secs

     total energy              =    -333.18114080 Ry
     estimated scf accuracy    <       0.00013181 Ry

     iteration # 10     ecut=    30.00 Ry     beta= 0.70
     Davidson diagonalization with overlap
     ethr =  1.80E-07,  avg # of iterations =  4.2

     total cpu time spent up to now is        6.6 secs

     total energy              =    -333.18115703 Ry
     estimated scf accuracy    <       0.00000387 Ry

     iteration # 11     ecut=    30.00 Ry     beta= 0.70
     Davidson diagonalization with overlap
     ethr =  8.79E-09,  avg # of iterations =  4.7

     total cpu time spent up to now is        7.0 secs

     total energy              =    -333.18115874 Ry
     estimated scf accuracy    <       0.00000086 Ry

     iteration # 12     ecut=    30.00 Ry     beta= 0.70
     Davidson diagonalization with overlap
     ethr =  1.96E-09,  avg # of iterations =  1.8

     total cpu time spent up to now is        7.4 secs

     total energy              =    -333.18115866 Ry
     estimated scf accuracy    <       0.00000033 Ry

     iteration # 13     ecut=    30.00 Ry     beta= 0.70
     Davidson diagonalization with overlap
     ethr =  7.58E-10,  avg # of iterations =  4.2

     total cpu time spent up to now is        7.8 secs

     End of self-consistent calculation

          k = 0.1250 0.1250 0.1250 (  1090 PWs)   bands (ev):

   -44.5545 -21.2363 -21.1594 -21.1583  -6.3240  -5.2798  -5.2053  -3.9770
    -3.9685  -3.9565  -3.7898  -3.7810   4.6438   7.2933   7.3342   8.0893
     9.0102   9.1030   9.7119   9.8493  10.0606  10.1765

          k = 0.1250 0.1250 0.3750 (  1095 PWs)   bands (ev):

   -44.5532 -21.2951 -21.1571 -21.1561  -5.8787  -5.1381  -5.0788  -4.0363
    -3.9723  -3.9516  -3.8794  -3.7607   3.8773   6.8267   7.2260   7.8629
     8.5033   8.6332   9.4360   9.9043  10.1898  10.9280

          k = 0.1250 0.3750 0.3750 (  1087 PWs)   bands (ev):

   -44.5519 -21.2915 -21.2130 -21.1545  -5.6651  -5.0429  -4.9209  -4.0098
    -3.9649  -3.9105  -3.8186  -3.6534   3.5313   6.6843   6.9727   7.1974
     7.5195   8.7309   9.3722   9.5357  10.0473  10.6872

          k = 0.3750 0.3750 0.3750 (  1082 PWs)   bands (ev):

   -44.5507 -21.2890 -21.2106 -21.2103  -5.3161  -5.1477  -5.0987  -3.9228
    -3.9129  -3.6329  -3.5655  -3.5429   4.1586   5.9046   5.9712   6.7044
     7.1161   7.1611   7.9928  10.6166  10.6732  10.7783

          k = 0.3750-0.1250 0.1250 (  1095 PWs)   bands (ev):

   -44.5533 -21.2341 -21.2166 -21.1567  -5.9323  -5.1415  -5.0459  -4.0323
    -3.9667  -3.9544  -3.8887  -3.7533   3.9097   6.8984   7.3695   7.8564
     8.4456   8.8014   9.2981   9.9127  10.0246  10.8509

          k = 0.3750-0.3750 0.1250 (  1087 PWs)   bands (ev):

   -44.5520 -21.2320 -21.2135 -21.2126  -5.7640  -4.9725  -4.8955  -4.0009
    -3.9618  -3.9014  -3.8151  -3.6883   3.5608   6.8481   6.8980   7.1606
     7.4657   8.6925   9.4956   9.5132  10.0283  10.7811

     highest occupied level (ev):    10.9280

!    total energy              =    -333.18115875 Ry
     estimated scf accuracy    <       0.00000004 Ry

     The total energy is the sum of the following terms:
     one-electron contribution =     -76.95909779 Ry
     hartree contribution      =      66.49181806 Ry
     xc contribution           =     -49.66852976 Ry
     ewald contribution        =    -273.04534926 Ry

     convergence has been achieved in  13 iterations

     Forces acting on atoms (cartesian axes, Ry/au):

     atom    1 type  2   force =     0.00000000    0.00000000   -0.01536141
     atom    2 type  3   force =     0.00000000    0.00000000    0.03543606
     atom    3 type  1   force =     0.00000000    0.00000000   -0.00051191
     atom    4 type  1   force =     0.00000000    0.00000000   -0.00051191
     atom    5 type  1   force =     0.00000000    0.00000000   -0.01905083

     Total force =     0.019065     Total SCF correction =     0.000091


     Computing stress (Cartesian axis) and pressure

          total   stress  (Ry/bohr**3)                   (kbar)     P=       -2.20
  -0.00008124   0.00000000   0.00000000          -11.95        0.00        0.00
   0.00000000  -0.00008124   0.00000000            0.00      -11.95        0.00
   0.00000000   0.00000000   0.00011754            0.00        0.00       17.29


     BFGS Geometry Optimization
     Energy error            =      3.9E-04 Ry
     Gradient error          =      1.9E-02 Ry/Bohr

     number of scf cycles    =   1
     number of bfgs steps    =   0

     energy             new  =    -333.1811587456 Ry

     new trust radius        =       0.0190508263 bohr
     new conv_thr            =       0.0000001000 Ry


ATOMIC_POSITIONS (angstrom)
Pb               0.0000000000        0.0000000000        0.0000000000    0   0   0
Ti               1.9375000000        1.9375000000        1.8018700000    0   0   0
O                0.0000000000        1.9375000000        1.9372291083
O                1.9375000000        0.0000000000        1.9372291083
O                1.9375000000        1.9375000000       -0.0100812631


     Message from routine punch:
     Nothing written, as per user request (disk_io='none')
     NEW-OLD atomic charge density approx. for the potential

     total cpu time spent up to now is        9.3 secs

     Self-consistent Calculation

     iteration #  1     ecut=    30.00 Ry     beta= 0.70
     Davidson diagonalization with overlap
     ethr =  1.00E-06,  avg # of iterations =  5.0

     total cpu time spent up to now is        9.8 secs

     total energy              =    -333.18143674 Ry
     estimated scf accuracy    <       0.00006639 Ry

     iteration #  2     ecut=    30.00 Ry     beta= 0.70
     Davidson diagonalization with overlap
     ethr =  1.51E-07,  avg # of iterations =  4.8

     total cpu time spent up to now is       10.3 secs

     total energy              =    -333.18144413 Ry
     estimated scf accuracy    <       0.00004134 Ry

     iteration #  3     ecut=    30.00 Ry     beta= 0.70
     Davidson diagonalization with overlap
     ethr =  9.40E-08,  avg # of iterations =  4.7

     total cpu time spent up to now is       10.8 secs

     total energy              =    -333.18145440 Ry
     estimated scf accuracy    <       0.00001531 Ry

     iteration #  4     ecut=    30.00 Ry     beta= 0.70
     Davidson diagonalization with overlap
     ethr =  3.48E-08,  avg # of iterations =  3.5

     total cpu time spent up to now is       11.3 secs

     total energy              =    -333.18145658 Ry
     estimated scf accuracy    <       0.00000063 Ry

     iteration #  5     ecut=    30.00 Ry     beta= 0.70
     Davidson diagonalization with overlap
     ethr =  1.44E-09,  avg # of iterations =  6.0

     total cpu time spent up to now is       11.8 secs

     total energy              =    -333.18145717 Ry
     estimated scf accuracy    <       0.00000106 Ry

     iteration #  6     ecut=    30.00 Ry     beta= 0.70
     Davidson diagonalization with overlap
     ethr =  1.44E-09,  avg # of iterations =  3.2

     total cpu time spent up to now is       12.2 secs

     total energy              =    -333.18145708 Ry
     estimated scf accuracy    <       0.00000045 Ry

     iteration #  7     ecut=    30.00 Ry     beta= 0.70
     Davidson diagonalization with overlap
     ethr =  1.02E-09,  avg # of iterations =  4.2

     total cpu time spent up to now is       12.7 secs

     End of self-consistent calculation

          k = 0.1250 0.1250 0.1250 (  1090 PWs)   bands (ev):

   -44.5696 -21.2401 -21.1748 -21.1737  -6.3250  -5.2757  -5.2089  -3.9738
    -3.9662  -3.9541  -3.7870  -3.7792   4.6464   7.2949   7.3308   8.0870
     9.0243   9.1130   9.7301   9.8511  10.0559  10.1800

          k = 0.1250 0.1250 0.3750 (  1095 PWs)   bands (ev):

   -44.5684 -21.2988 -21.1725 -21.1715  -5.8827  -5.1313  -5.0831  -4.0334
    -3.9691  -3.9494  -3.8776  -3.7578   3.8839   6.8274   7.2343   7.8567
     8.5044   8.6495   9.4349   9.9068  10.1850  10.9268

          k = 0.1250 0.3750 0.3750 (  1087 PWs)   bands (ev):

   -44.5671 -21.2952 -21.2283 -21.1699  -5.6686  -5.0365  -4.9238  -4.0068
    -3.9620  -3.9079  -3.8162  -3.6523   3.5355   6.6933   6.9670   7.1967
     7.5182   8.7275   9.3861   9.5326  10.0523  10.6919

          k = 0.3750 0.3750 0.3750 (  1082 PWs)   bands (ev):

   -44.5658 -21.2926 -21.2259 -21.2257  -5.3138  -5.1464  -5.1018  -3.9196
    -3.9107  -3.6295  -3.5631  -3.5425   4.1615   5.9120   5.9710   6.7026
     7.1150   7.1545   7.9969  10.6257  10.6796  10.7752

          k = 0.3750-0.1250 0.1250 (  1095 PWs)   bands (ev):

   -44.5684 -21.2380 -21.2318 -21.1721  -5.9312  -5.1393  -5.0496  -4.0297
    -3.9640  -3.9519  -3.8859  -3.7514   3.9125   6.8947   7.3710   7.8564
     8.4468   8.8021   9.3103   9.9168  10.0335  10.8555

          k = 0.3750-0.3750 0.1250 (  1087 PWs)   bands (ev):

   -44.5671 -21.2359 -21.2286 -21.2279  -5.7580  -4.9757  -4.8996  -3.9988
    -3.9592  -3.8996  -3.8131  -3.6838   3.5612   6.8451   6.8962   7.1700
     7.4751   8.6934   9.4980   9.5117  10.0299  10.7776

     highest occupied level (ev):    10.9268

!    total energy              =    -333.18145718 Ry
     estimated scf accuracy    <       0.00000003 Ry

     The total energy is the sum of the following terms:
     one-electron contribution =     -76.84343649 Ry
     hartree contribution      =      66.42991789 Ry
     xc contribution           =     -49.66422377 Ry
     ewald contribution        =    -273.10371481 Ry

     convergence has been achieved in   7 iterations

     Forces acting on atoms (cartesian axes, Ry/au):

     atom    1 type  2   force =     0.00000000    0.00000000   -0.01564117
     atom    2 type  3   force =     0.00000000    0.00000000    0.03209427
     atom    3 type  1   force =     0.00000000    0.00000000   -0.00219949
     atom    4 type  1   force =     0.00000000    0.00000000   -0.00219949
     atom    5 type  1   force =     0.00000000    0.00000000   -0.01205412

     Total force =     0.012449     Total SCF correction =     0.000036


     Computing stress (Cartesian axis) and pressure

          total   stress  (Ry/bohr**3)                   (kbar)     P=       -4.73
  -0.00008761   0.00000000   0.00000000          -12.89        0.00        0.00
   0.00000000  -0.00008761   0.00000000            0.00      -12.89        0.00
   0.00000000   0.00000000   0.00007878            0.00        0.00       11.59

     Energy error            =      3.0E-04 Ry
     Gradient error          =      1.2E-02 Ry/Bohr

     number of scf cycles    =   2
     number of bfgs steps    =   1

     energy             old  =    -333.1811587456 Ry
     energy             new  =    -333.1814571789 Ry

     CASE: energy            _new < energy            _old

     new trust radius        =       0.0209559089 bohr
     new conv_thr            =       0.0000000030 Ry


ATOMIC_POSITIONS (angstrom)
Pb               0.0000000000        0.0000000000        0.0000000000    0   0   0
Ti               1.9375000000        1.9375000000        1.8018700000    0   0   0
O                0.0000000000        1.9375000000        1.9353399378
O                1.9375000000        0.0000000000        1.9353399378
O                1.9375000000        1.9375000000       -0.0211706526


     Message from routine punch:
     Nothing written, as per user request (disk_io='none')
     NEW-OLD atomic charge density approx. for the potential

     total cpu time spent up to now is       14.4 secs

     Self-consistent Calculation

     iteration #  1     ecut=    30.00 Ry     beta= 0.70
     Davidson diagonalization with overlap
     ethr =  1.00E-06,  avg # of iterations =  5.2

     total cpu time spent up to now is       14.9 secs

     total energy              =    -333.18163116 Ry
     estimated scf accuracy    <       0.00008618 Ry

     iteration #  2     ecut=    30.00 Ry     beta= 0.70
     Davidson diagonalization with overlap
     ethr =  1.96E-07,  avg # of iterations =  4.8

     total cpu time spent up to now is       15.3 secs

     total energy              =    -333.18163639 Ry
     estimated scf accuracy    <       0.00007715 Ry

     iteration #  3     ecut=    30.00 Ry     beta= 0.70
     Davidson diagonalization with overlap
     ethr =  1.75E-07,  avg # of iterations =  4.7

     total cpu time spent up to now is       15.8 secs

     total energy              =    -333.18165501 Ry
     estimated scf accuracy    <       0.00001524 Ry

     iteration #  4     ecut=    30.00 Ry     beta= 0.70
     Davidson diagonalization with overlap
     ethr =  3.46E-08,  avg # of iterations =  3.8

     total cpu time spent up to now is       16.2 secs

     total energy              =    -333.18165716 Ry
     estimated scf accuracy    <       0.00000082 Ry

     iteration #  5     ecut=    30.00 Ry     beta= 0.70
     Davidson diagonalization with overlap
     ethr =  1.87E-09,  avg # of iterations =  5.7

     total cpu time spent up to now is       16.7 secs

     total energy              =    -333.18165779 Ry
     estimated scf accuracy    <       0.00000075 Ry

     iteration #  6     ecut=    30.00 Ry     beta= 0.70
     Davidson diagonalization with overlap
     ethr =  1.70E-09,  avg # of iterations =  2.3

     total cpu time spent up to now is       17.1 secs

     total energy              =    -333.18165771 Ry
     estimated scf accuracy    <       0.00000034 Ry

     iteration #  7     ecut=    30.00 Ry     beta= 0.70
     Davidson diagonalization with overlap
     ethr =  7.70E-10,  avg # of iterations =  4.5

     total cpu time spent up to now is       17.6 secs

     total energy              =    -333.18165781 Ry
     estimated scf accuracy    <       0.00000003 Ry

     iteration #  8     ecut=    30.00 Ry     beta= 0.70
     Davidson diagonalization with overlap
     ethr =  7.40E-11,  avg # of iterations =  3.3

     total cpu time spent up to now is       18.0 secs

     total energy              =    -333.18165781 Ry
     estimated scf accuracy    <          8.7E-09 Ry

     iteration #  9     ecut=    30.00 Ry     beta= 0.70
     Davidson diagonalization with overlap
     ethr =  1.97E-11,  avg # of iterations =  4.8

     total cpu time spent up to now is       18.4 secs

     End of self-consistent calculation

          k = 0.1250 0.1250 0.1250 (  1090 PWs)   bands (ev):

   -44.5860 -21.2451 -21.1914 -21.1904  -6.3262  -5.2718  -5.2131  -3.9703
    -3.9636  -3.9514  -3.7840  -3.7771   4.6491   7.2962   7.3270   8.0853
     9.0397   9.1219   9.7517   9.8541  10.0502  10.1821

          k = 0.1250 0.1250 0.3750 (  1095 PWs)   bands (ev):

   -44.5848 -21.3037 -21.1892 -21.1882  -5.8872  -5.1245  -5.0879  -4.0301
    -3.9655  -3.9469  -3.8756  -3.7547   3.8910   6.8276   7.2437   7.8510
     8.5043   8.6657   9.4335   9.9104  10.1795  10.9249

          k = 0.1250 0.3750 0.3750 (  1087 PWs)   bands (ev):

   -44.5835 -21.3001 -21.2449 -21.1866  -5.6726  -5.0305  -4.9265  -4.0035
    -3.9588  -3.9050  -3.8135  -3.6510   3.5399   6.7031   6.9593   7.1956
     7.5163   8.7234   9.3997   9.5292  10.0569  10.6972

          k = 0.3750 0.3750 0.3750 (  1082 PWs)   bands (ev):

   -44.5822 -21.2976 -21.2425 -21.2422  -5.3117  -5.1448  -5.1049  -3.9161
    -3.9083  -3.6259  -3.5605  -3.5419   4.1644   5.9191   5.9702   6.7013
     7.1116   7.1457   8.0006  10.6353  10.6858  10.7724

          k = 0.3750-0.1250 0.1250 (  1095 PWs)   bands (ev):

   -44.5848 -21.2487 -21.2428 -21.1888  -5.9303  -5.1375  -5.0535  -4.0269
    -3.9610  -3.9491  -3.8829  -3.7492   3.9153   6.8900   7.3718   7.8557
     8.4477   8.8013   9.3231   9.9214  10.0434  10.8601

          k = 0.3750-0.3750 0.1250 (  1087 PWs)   bands (ev):

   -44.5835 -21.2457 -21.2445 -21.2404  -5.7519  -4.9789  -4.9038  -3.9965
    -3.9564  -3.8975  -3.8108  -3.6792   3.5616   6.8417   6.8929   7.1786
     7.4837   8.6932   9.4992   9.5103  10.0320  10.7738

     highest occupied level (ev):    10.9249

!    total energy              =    -333.18165781 Ry
     estimated scf accuracy    <          1.8E-09 Ry

     The total energy is the sum of the following terms:
     one-electron contribution =     -76.73946829 Ry
     hartree contribution      =      66.37442893 Ry
     xc contribution           =     -49.66024158 Ry
     ewald contribution        =    -273.15637687 Ry

     convergence has been achieved in   9 iterations

     Forces acting on atoms (cartesian axes, Ry/au):

     atom    1 type  2   force =     0.00000000    0.00000000   -0.01570143
     atom    2 type  3   force =     0.00000000    0.00000000    0.02872556
     atom    3 type  1   force =     0.00000000    0.00000000   -0.00385321
     atom    4 type  1   force =     0.00000000    0.00000000   -0.00385321
     atom    5 type  1   force =     0.00000000    0.00000000   -0.00531771

     Total force =     0.007614     Total SCF correction =     0.000012


     Computing stress (Cartesian axis) and pressure

          total   stress  (Ry/bohr**3)                   (kbar)     P=       -6.86
  -0.00009084   0.00000000   0.00000000          -13.36        0.00        0.00
   0.00000000  -0.00009084   0.00000000            0.00      -13.36        0.00
   0.00000000   0.00000000   0.00004184            0.00        0.00        6.15

     Energy error            =      2.0E-04 Ry
     Gradient error          =      5.3E-03 Ry/Bohr

     number of scf cycles    =   3
     number of bfgs steps    =   2

     energy             old  =    -333.1814571789 Ry
     energy             new  =    -333.1816578147 Ry

     CASE: energy            _new < energy            _old

     new trust radius        =       0.0254638245 bohr
     new conv_thr            =       0.0000000020 Ry


ATOMIC_POSITIONS (angstrom)
Pb               0.0000000000        0.0000000000        0.0000000000    0   0   0
Ti               1.9375000000        1.9375000000        1.8018700000    0   0   0
O                0.0000000000        1.9375000000        1.9301264197
O                1.9375000000        0.0000000000        1.9301264197
O                1.9375000000        1.9375000000       -0.0346455282


     Message from routine punch:
     Nothing written, as per user request (disk_io='none')
     NEW-OLD atomic charge density approx. for the potential

     total cpu time spent up to now is       20.1 secs

     Self-consistent Calculation

     iteration #  1     ecut=    30.00 Ry     beta= 0.70
     Davidson diagonalization with overlap
     ethr =  1.00E-06,  avg # of iterations =  5.7

     total cpu time spent up to now is       20.6 secs

     total energy              =    -333.18176964 Ry
     estimated scf accuracy    <       0.00012210 Ry

     iteration #  2     ecut=    30.00 Ry     beta= 0.70
     Davidson diagonalization with overlap
     ethr =  2.78E-07,  avg # of iterations =  4.5

     total cpu time spent up to now is       21.2 secs

     total energy              =    -333.18177498 Ry
     estimated scf accuracy    <       0.00009087 Ry

     iteration #  3     ecut=    30.00 Ry     beta= 0.70
     Davidson diagonalization with overlap
     ethr =  2.07E-07,  avg # of iterations =  4.5

     total cpu time spent up to now is       21.7 secs

     total energy              =    -333.18179752 Ry
     estimated scf accuracy    <       0.00002600 Ry

     iteration #  4     ecut=    30.00 Ry     beta= 0.70
     Davidson diagonalization with overlap
     ethr =  5.91E-08,  avg # of iterations =  3.5

     total cpu time spent up to now is       22.1 secs

     total energy              =    -333.18180182 Ry
     estimated scf accuracy    <       0.00000110 Ry

     iteration #  5     ecut=    30.00 Ry     beta= 0.70
     Davidson diagonalization with overlap
     ethr =  2.51E-09,  avg # of iterations =  5.5

     total cpu time spent up to now is       22.7 secs

     total energy              =    -333.18180279 Ry
     estimated scf accuracy    <       0.00000167 Ry

     iteration #  6     ecut=    30.00 Ry     beta= 0.70
     Davidson diagonalization with overlap
     ethr =  2.51E-09,  avg # of iterations =  2.7

     total cpu time spent up to now is       23.1 secs

     total energy              =    -333.18180192 Ry
     estimated scf accuracy    <       0.00000067 Ry

     iteration #  7     ecut=    30.00 Ry     beta= 0.70
     Davidson diagonalization with overlap
     ethr =  1.52E-09,  avg # of iterations =  4.5

     total cpu time spent up to now is       23.7 secs

     total energy              =    -333.18180210 Ry
     estimated scf accuracy    <       0.00000005 Ry

     iteration #  8     ecut=    30.00 Ry     beta= 0.70
     Davidson diagonalization with overlap
     ethr =  1.13E-10,  avg # of iterations =  2.5

     total cpu time spent up to now is       24.2 secs

     total energy              =    -333.18180285 Ry
     estimated scf accuracy    <       0.00000002 Ry

     iteration #  9     ecut=    30.00 Ry     beta= 0.70
     Davidson diagonalization with overlap
     ethr =  3.82E-11,  avg # of iterations =  4.8

     total cpu time spent up to now is       24.6 secs

     total energy              =    -333.18180285 Ry
     estimated scf accuracy    <          4.9E-09 Ry

     iteration # 10     ecut=    30.00 Ry     beta= 0.70
     Davidson diagonalization with overlap
     ethr =  1.11E-11,  avg # of iterations =  2.3

     total cpu time spent up to now is       25.0 secs

     End of self-consistent calculation

          k = 0.1250 0.1250 0.1250 (  1090 PWs)   bands (ev):

   -44.6030 -21.2500 -21.2088 -21.2078  -6.3273  -5.2674  -5.2192  -3.9668
    -3.9611  -3.9489  -3.7811  -3.7753   4.6520   7.2982   7.3227   8.0850
     9.0582   9.1308   9.7812   9.8596  10.0418  10.1815

          k = 0.1250 0.1250 0.3750 (  1095 PWs)   bands (ev):

   -44.6017 -21.3084 -21.2066 -21.2056  -5.8929  -5.1160  -5.0949  -4.0268
    -3.9620  -3.9445  -3.8737  -3.7516   3.8992   6.8291   7.2573   7.8462
     8.5012   8.6837   9.4308   9.9160  10.1718  10.9210

          k = 0.1250 0.3750 0.3750 (  1087 PWs)   bands (ev):

   -44.6005 -21.3048 -21.2622 -21.2040  -5.6780  -5.0231  -4.9297  -4.0003
    -3.9557  -3.9020  -3.8108  -3.6501   3.5445   6.7170   6.9473   7.1945
     7.5134   8.7179   9.4143   9.5246  10.0611  10.7042

          k = 0.3750 0.3750 0.3750 (  1082 PWs)   bands (ev):

   -44.5992 -21.3023 -21.2599 -21.2596  -5.3092  -5.1424  -5.1091  -3.9126
    -3.9059  -3.6221  -3.5577  -3.5416   4.1667   5.9269   5.9682   6.7018
     7.1049   7.1324   8.0043  10.6468  10.6923  10.7691

          k = 0.3750-0.1250 0.1250 (  1095 PWs)   bands (ev):

   -44.6018 -21.2660 -21.2477 -21.2062  -5.9288  -5.1359  -5.0585  -4.0242
    -3.9581  -3.9464  -3.8796  -3.7471   3.9183   6.8834   7.3711   7.8550
     8.4493   8.7977   9.3383   9.9274  10.0565  10.8650

          k = 0.3750-0.3750 0.1250 (  1087 PWs)   bands (ev):

   -44.6005 -21.2629 -21.2619 -21.2455  -5.7438  -4.9832  -4.9092  -3.9942
    -3.9535  -3.8955  -3.8085  -3.6742   3.5612   6.8374   6.8877   7.1865
     7.4913   8.6928   9.4985   9.5088  10.0356  10.7685

     highest occupied level (ev):    10.9210

!    total energy              =    -333.18180210 Ry
     estimated scf accuracy    <          1.3E-09 Ry

     The total energy is the sum of the following terms:
     one-electron contribution =     -76.64703605 Ry
     hartree contribution      =      66.32400615 Ry
     xc contribution           =     -49.65627091 Ry
     ewald contribution        =    -273.20250129 Ry

     convergence has been achieved in  10 iterations

     Forces acting on atoms (cartesian axes, Ry/au):

     atom    1 type  2   force =     0.00000000    0.00000000   -0.01557353
     atom    2 type  3   force =     0.00000000    0.00000000    0.02518106
     atom    3 type  1   force =     0.00000000    0.00000000   -0.00546661
     atom    4 type  1   force =     0.00000000    0.00000000   -0.00546661
     atom    5 type  1   force =     0.00000000    0.00000000    0.00132569

     Total force =     0.007844     Total SCF correction =     0.000005


     Computing stress (Cartesian axis) and pressure

          total   stress  (Ry/bohr**3)                   (kbar)     P=       -9.25
  -0.00009504   0.00000000   0.00000000          -13.98        0.00        0.00
   0.00000000  -0.00009504   0.00000000            0.00      -13.98        0.00
   0.00000000   0.00000000   0.00000143            0.00        0.00        0.21

     Energy error            =      1.4E-04 Ry
     Gradient error          =      5.5E-03 Ry/Bohr

     number of scf cycles    =   4
     number of bfgs steps    =   3

     energy             old  =    -333.1816578147 Ry
     energy             new  =    -333.1818021016 Ry

     CASE: energy            _new < energy            _old

     new trust radius        =       0.0178154902 bohr
     new conv_thr            =       0.0000000014 Ry


ATOMIC_POSITIONS (angstrom)
Pb               0.0000000000        0.0000000000        0.0000000000    0   0   0
Ti               1.9375000000        1.9375000000        1.8018700000    0   0   0
O                0.0000000000        1.9375000000        1.9228455238
O                1.9375000000        0.0000000000        1.9228455238
O                1.9375000000        1.9375000000       -0.0440730796


     Message from routine punch:
     Nothing written, as per user request (disk_io='none')
     NEW-OLD atomic charge density approx. for the potential

     total cpu time spent up to now is       26.8 secs

     Self-consistent Calculation

     iteration #  1     ecut=    30.00 Ry     beta= 0.70
     Davidson diagonalization with overlap
     ethr =  1.00E-06,  avg # of iterations =  5.3

     total cpu time spent up to now is       27.3 secs

     total energy              =    -333.18189678 Ry
     estimated scf accuracy    <       0.00007026 Ry

     iteration #  2     ecut=    30.00 Ry     beta= 0.70
     Davidson diagonalization with overlap
     ethr =  1.60E-07,  avg # of iterations =  4.5

     total cpu time spent up to now is       27.9 secs

     total energy              =    -333.18189914 Ry
     estimated scf accuracy    <       0.00003679 Ry

     iteration #  3     ecut=    30.00 Ry     beta= 0.70
     Davidson diagonalization with overlap
     ethr =  8.36E-08,  avg # of iterations =  4.5

     total cpu time spent up to now is       28.4 secs

     total energy              =    -333.18190890 Ry
     estimated scf accuracy    <       0.00002236 Ry

     iteration #  4     ecut=    30.00 Ry     beta= 0.70
     Davidson diagonalization with overlap
     ethr =  5.08E-08,  avg # of iterations =  3.0

     total cpu time spent up to now is       28.9 secs

     total energy              =    -333.18191058 Ry
     estimated scf accuracy    <       0.00000229 Ry

     iteration #  5     ecut=    30.00 Ry     beta= 0.70
     Davidson diagonalization with overlap
     ethr =  5.21E-09,  avg # of iterations =  5.0

     total cpu time spent up to now is       29.6 secs

     total energy              =    -333.18191244 Ry
     estimated scf accuracy    <       0.00000266 Ry

     iteration #  6     ecut=    30.00 Ry     beta= 0.70
     Davidson diagonalization with overlap
     ethr =  5.21E-09,  avg # of iterations =  1.2

     total cpu time spent up to now is       30.1 secs

     total energy              =    -333.18191207 Ry
     estimated scf accuracy    <       0.00000162 Ry

     iteration #  7     ecut=    30.00 Ry     beta= 0.70
     Davidson diagonalization with overlap
     ethr =  3.68E-09,  avg # of iterations =  3.0

     total cpu time spent up to now is       30.7 secs

     total energy              =    -333.18191229 Ry
     estimated scf accuracy    <       0.00000011 Ry

     iteration #  8     ecut=    30.00 Ry     beta= 0.70
     Davidson diagonalization with overlap
     ethr =  2.61E-10,  avg # of iterations =  4.8

     total cpu time spent up to now is       31.4 secs

     total energy              =    -333.18191233 Ry
     estimated scf accuracy    <          4.1E-09 Ry

     iteration #  9     ecut=    30.00 Ry     beta= 0.70
     Davidson diagonalization with overlap
     ethr =  9.36E-12,  avg # of iterations =  4.3

     total cpu time spent up to now is       32.1 secs

     total energy              =    -333.18191233 Ry
     estimated scf accuracy    <          3.8E-09 Ry

     iteration # 10     ecut=    30.00 Ry     beta= 0.70
     Davidson diagonalization with overlap
     ethr =  8.68E-12,  avg # of iterations =  3.2

     total cpu time spent up to now is       32.7 secs

     End of self-consistent calculation

          k = 0.1250 0.1250 0.1250 (  1090 PWs)   bands (ev):

   -44.6134 -21.2530 -21.2198 -21.2187  -6.3280  -5.2649  -5.2248  -3.9647
    -3.9596  -3.9473  -3.7794  -3.7742   4.6538   7.3002   7.3201   8.0863
     9.0712   9.1356   9.8054   9.8653  10.0339  10.1774

          k = 0.1250 0.1250 0.3750 (  1095 PWs)   bands (ev):

   -44.6122 -21.3113 -21.2175 -21.2166  -5.8974  -5.1100  -5.1012  -4.0247
    -3.9598  -3.9431  -3.8726  -3.7497   3.9050   6.8309   7.2700   7.8452
     8.4953   8.6951   9.4274   9.9215  10.1649  10.9164

          k = 0.1250 0.3750 0.3750 (  1087 PWs)   bands (ev):

   -44.6109 -21.3077 -21.2732 -21.2150  -5.6824  -5.0183  -4.9319  -3.9983
    -3.9538  -3.9001  -3.8091  -3.6497   3.5473   6.7287   6.9358   7.1939
     7.5108   8.7133   9.4226   9.5204  10.0631  10.7094

          k = 0.3750 0.3750 0.3750 (  1082 PWs)   bands (ev):

   -44.6096 -21.3052 -21.2708 -21.2706  -5.3075  -5.1406  -5.1124  -3.9105
    -3.9046  -3.6198  -3.5559  -3.5414   4.1674   5.9317   5.9654   6.7040
     7.0969   7.1192   8.0064  10.6548  10.6957  10.7668

          k = 0.3750-0.1250 0.1250 (  1095 PWs)   bands (ev):

   -44.6122 -21.2769 -21.2507 -21.2171  -5.9275  -5.1357  -5.0624  -4.0226
    -3.9564  -3.9448  -3.8774  -3.7458   3.9200   6.8775   7.3691   7.8548
     8.4508   8.7926   9.3481   9.9318  10.0666  10.8677

          k = 0.3750-0.3750 0.1250 (  1087 PWs)   bands (ev):

   -44.6109 -21.2738 -21.2728 -21.2485  -5.7375  -4.9867  -4.9135  -3.9930
    -3.9518  -3.8942  -3.8070  -3.6709   3.5601   6.8340   6.8825   7.1894
     7.4937   8.6922   9.4958   9.5076  10.0389  10.7640

     highest occupied level (ev):    10.9164

!    total energy              =    -333.18191233 Ry
     estimated scf accuracy    <          8.9E-10 Ry

     The total energy is the sum of the following terms:
     one-electron contribution =     -76.61529791 Ry
     hartree contribution      =      66.30534003 Ry
     xc contribution           =     -49.65430738 Ry
     ewald contribution        =    -273.21764706 Ry

     convergence has been achieved in  10 iterations

     Forces acting on atoms (cartesian axes, Ry/au):

     atom    1 type  2   force =     0.00000000    0.00000000   -0.01516316
     atom    2 type  3   force =     0.00000000    0.00000000    0.02300823
     atom    3 type  1   force =     0.00000000    0.00000000   -0.00609453
     atom    4 type  1   force =     0.00000000    0.00000000   -0.00609453
     atom    5 type  1   force =     0.00000000    0.00000000    0.00434400

     Total force =     0.009652     Total SCF correction =     0.000012


     Computing stress (Cartesian axis) and pressure

          total   stress  (Ry/bohr**3)                   (kbar)     P=      -10.50
  -0.00009611   0.00000000   0.00000000          -14.14        0.00        0.00
   0.00000000  -0.00009611   0.00000000            0.00      -14.14        0.00
   0.00000000   0.00000000  -0.00002200            0.00        0.00       -3.24

     Energy error            =      1.1E-04 Ry
     Gradient error          =      6.1E-03 Ry/Bohr

     number of scf cycles    =   5
     number of bfgs steps    =   4

     energy             old  =    -333.1818021016 Ry
     energy             new  =    -333.1819123306 Ry

     CASE: energy            _new < energy            _old

     new trust radius        =       0.0195970392 bohr
     new conv_thr            =       0.0000000011 Ry


ATOMIC_POSITIONS (angstrom)
Pb               0.0000000000        0.0000000000        0.0000000000    0   0   0
Ti               1.9375000000        1.9375000000        1.8018700000    0   0   0
O                0.0000000000        1.9375000000        1.9124752173
O                1.9375000000        0.0000000000        1.9124752173
O                1.9375000000        1.9375000000       -0.0538238550


     Message from routine punch:
     Nothing written, as per user request (disk_io='none')
     NEW-OLD atomic charge density approx. for the potential

     total cpu time spent up to now is       34.6 secs

     Self-consistent Calculation

     iteration #  1     ecut=    30.00 Ry     beta= 0.70
     Davidson diagonalization with overlap
     ethr =  1.00E-06,  avg # of iterations =  5.7

     total cpu time spent up to now is       35.2 secs

     total energy              =    -333.18204127 Ry
     estimated scf accuracy    <       0.00009555 Ry

     iteration #  2     ecut=    30.00 Ry     beta= 0.70
     Davidson diagonalization with overlap
     ethr =  2.17E-07,  avg # of iterations =  4.3

     total cpu time spent up to now is       35.7 secs

     total energy              =    -333.18204784 Ry
     estimated scf accuracy    <       0.00003004 Ry

     iteration #  3     ecut=    30.00 Ry     beta= 0.70
     Davidson diagonalization with overlap
     ethr =  6.83E-08,  avg # of iterations =  5.5

     total cpu time spent up to now is       36.5 secs

     total energy              =    -333.18205373 Ry
     estimated scf accuracy    <       0.00003536 Ry

     iteration #  4     ecut=    30.00 Ry     beta= 0.70
     Davidson diagonalization with overlap
     ethr =  6.83E-08,  avg # of iterations =  4.0

     total cpu time spent up to now is       37.0 secs

     total energy              =    -333.18205946 Ry
     estimated scf accuracy    <       0.00000027 Ry

     iteration #  5     ecut=    30.00 Ry     beta= 0.70
     Davidson diagonalization with overlap
     ethr =  6.24E-10,  avg # of iterations =  7.7

     total cpu time spent up to now is       37.8 secs

     total energy              =    -333.18206015 Ry
     estimated scf accuracy    <       0.00000151 Ry

     iteration #  6     ecut=    30.00 Ry     beta= 0.70
     Davidson diagonalization with overlap
     ethr =  6.24E-10,  avg # of iterations =  4.3

     total cpu time spent up to now is       38.4 secs

     total energy              =    -333.18206014 Ry
     estimated scf accuracy    <       0.00000041 Ry

     iteration #  7     ecut=    30.00 Ry     beta= 0.70
     Davidson diagonalization with overlap
     ethr =  6.24E-10,  avg # of iterations =  4.0

     total cpu time spent up to now is       38.9 secs

     total energy              =    -333.18206016 Ry
     estimated scf accuracy    <       0.00000006 Ry

     iteration #  8     ecut=    30.00 Ry     beta= 0.70
     Davidson diagonalization with overlap
     ethr =  1.27E-10,  avg # of iterations =  4.8

     total cpu time spent up to now is       39.4 secs

     total energy              =    -333.18206019 Ry
     estimated scf accuracy    <       0.00000001 Ry

     iteration #  9     ecut=    30.00 Ry     beta= 0.70
     Davidson diagonalization with overlap
     ethr =  2.71E-11,  avg # of iterations =  2.3

     total cpu time spent up to now is       39.8 secs

     total energy              =    -333.18206019 Ry
     estimated scf accuracy    <          4.0E-09 Ry

     iteration # 10     ecut=    30.00 Ry     beta= 0.70
     Davidson diagonalization with overlap
     ethr =  9.15E-12,  avg # of iterations =  4.3

     total cpu time spent up to now is       40.4 secs

     End of self-consistent calculation

          k = 0.1250 0.1250 0.1250 (  1090 PWs)   bands (ev):

   -44.6235 -21.2561 -21.2304 -21.2294  -6.3289  -5.2628  -5.2316  -3.9625
    -3.9581  -3.9457  -3.7778  -3.7729   4.6557   7.3026   7.3180   8.0886
     9.0844   9.1394   9.8328   9.8722  10.0241  10.1699

          k = 0.1250 0.1250 0.3750 (  1095 PWs)   bands (ev):

   -44.6223 -21.3143 -21.2282 -21.2272  -5.9026  -5.1090  -5.1041  -4.0224
    -3.9575  -3.9416  -3.8712  -3.7478   3.9113   6.8333   7.2850   7.8454
     8.4865   8.7059   9.4223   9.9280  10.1568  10.9107

          k = 0.1250 0.3750 0.3750 (  1087 PWs)   bands (ev):

   -44.6210 -21.3107 -21.2839 -21.2256  -5.6876  -5.0140  -4.9342  -3.9961
    -3.9518  -3.8981  -3.8072  -3.6492   3.5500   6.7420   6.9215   7.1932
     7.5077   8.7079   9.4293   9.5155  10.0646  10.7146

          k = 0.3750 0.3750 0.3750 (  1082 PWs)   bands (ev):

   -44.6197 -21.3082 -21.2815 -21.2813  -5.3059  -5.1388  -5.1164  -3.9083
    -3.9032  -3.6173  -3.5538  -3.5410   4.1672   5.9363   5.9616   6.7071
     7.0865   7.1032   8.0086  10.6627  10.6976  10.7648

          k = 0.3750-0.1250 0.1250 (  1095 PWs)   bands (ev):

   -44.6223 -21.2876 -21.2538 -21.2277  -5.9263  -5.1364  -5.0670  -4.0209
    -3.9546  -3.9431  -3.8747  -3.7443   3.9216   6.8705   7.3658   7.8549
     8.4525   8.7856   9.3572   9.9359  10.0774  10.8700

          k = 0.3750-0.3750 0.1250 (  1087 PWs)   bands (ev):

   -44.6210 -21.2845 -21.2835 -21.2517  -5.7308  -4.9911  -4.9187  -3.9917
    -3.9498  -3.8924  -3.8051  -3.6676   3.5584   6.8302   6.8760   7.1906
     7.4939   8.6912   9.4913   9.5061  10.0429  10.7585

     highest occupied level (ev):    10.9107

!    total energy              =    -333.18206019 Ry
     estimated scf accuracy    <          4.4E-10 Ry

     The total energy is the sum of the following terms:
     one-electron contribution =     -76.60864999 Ry
     hartree contribution      =      66.29947890 Ry
     xc contribution           =     -49.65291232 Ry
     ewald contribution        =    -273.21997678 Ry

     convergence has been achieved in  10 iterations

     Forces acting on atoms (cartesian axes, Ry/au):

     atom    1 type  2   force =     0.00000000    0.00000000   -0.01450061
     atom    2 type  3   force =     0.00000000    0.00000000    0.02104648
     atom    3 type  1   force =     0.00000000    0.00000000   -0.00635819
     atom    4 type  1   force =     0.00000000    0.00000000   -0.00635819
     atom    5 type  1   force =     0.00000000    0.00000000    0.00617052

     Total force =     0.010905     Total SCF correction =     0.000007


     Computing stress (Cartesian axis) and pressure

          total   stress  (Ry/bohr**3)                   (kbar)     P=      -11.22
  -0.00009408   0.00000000   0.00000000          -13.84        0.00        0.00
   0.00000000  -0.00009408   0.00000000            0.00      -13.84        0.00
   0.00000000   0.00000000  -0.00004066            0.00        0.00       -5.98

     Energy error            =      1.5E-04 Ry
     Gradient error          =      6.4E-03 Ry/Bohr

     number of scf cycles    =   6
     number of bfgs steps    =   5

     energy             old  =    -333.1819123306 Ry
     energy             new  =    -333.1820601882 Ry

     CASE: energy            _new < energy            _old

     new trust radius        =       0.0293955588 bohr
     new conv_thr            =       0.0000000015 Ry


ATOMIC_POSITIONS (angstrom)
Pb               0.0000000000        0.0000000000        0.0000000000    0   0   0
Ti               1.9375000000        1.9375000000        1.8018700000    0   0   0
O                0.0000000000        1.9375000000        1.8969197575
O                1.9375000000        0.0000000000        1.8969197575
O                1.9375000000        1.9375000000       -0.0661993462


     Message from routine punch:
     Nothing written, as per user request (disk_io='none')
     NEW-OLD atomic charge density approx. for the potential

     total cpu time spent up to now is       42.1 secs

     Self-consistent Calculation

     iteration #  1     ecut=    30.00 Ry     beta= 0.70
     Davidson diagonalization with overlap
     ethr =  1.00E-06,  avg # of iterations =  7.2

     total cpu time spent up to now is       42.9 secs

     total energy              =    -333.18224655 Ry
     estimated scf accuracy    <       0.00018693 Ry

     iteration #  2     ecut=    30.00 Ry     beta= 0.70
     Davidson diagonalization with overlap
     ethr =  4.25E-07,  avg # of iterations =  3.7

     total cpu time spent up to now is       43.5 secs

     total energy              =    -333.18226264 Ry
     estimated scf accuracy    <       0.00003894 Ry

     iteration #  3     ecut=    30.00 Ry     beta= 0.70
     Davidson diagonalization with overlap
     ethr =  8.85E-08,  avg # of iterations =  4.8

     total cpu time spent up to now is       44.1 secs

     total energy              =    -333.18227010 Ry
     estimated scf accuracy    <       0.00003950 Ry

     iteration #  4     ecut=    30.00 Ry     beta= 0.70
     Davidson diagonalization with overlap
     ethr =  8.85E-08,  avg # of iterations =  3.7

     total cpu time spent up to now is       44.5 secs

     total energy              =    -333.18227741 Ry
     estimated scf accuracy    <       0.00000088 Ry

     iteration #  5     ecut=    30.00 Ry     beta= 0.70
     Davidson diagonalization with overlap
     ethr =  1.99E-09,  avg # of iterations =  6.8

     total cpu time spent up to now is       45.1 secs

     total energy              =    -333.18227813 Ry
     estimated scf accuracy    <       0.00000291 Ry

     iteration #  6     ecut=    30.00 Ry     beta= 0.70
     Davidson diagonalization with overlap
     ethr =  1.99E-09,  avg # of iterations =  4.3

     total cpu time spent up to now is       45.5 secs

     total energy              =    -333.18227831 Ry
     estimated scf accuracy    <       0.00000030 Ry

     iteration #  7     ecut=    30.00 Ry     beta= 0.70
     Davidson diagonalization with overlap
     ethr =  6.71E-10,  avg # of iterations =  3.8

     total cpu time spent up to now is       46.0 secs

     total energy              =    -333.18227836 Ry
     estimated scf accuracy    <          7.1E-09 Ry

     iteration #  8     ecut=    30.00 Ry     beta= 0.70
     Davidson diagonalization with overlap
     ethr =  1.61E-11,  avg # of iterations =  7.0

     total cpu time spent up to now is       46.5 secs

     total energy              =    -333.18227837 Ry
     estimated scf accuracy    <       0.00000002 Ry

     iteration #  9     ecut=    30.00 Ry     beta= 0.70
     Davidson diagonalization with overlap
     ethr =  1.61E-11,  avg # of iterations =  4.5

     total cpu time spent up to now is       47.1 secs

     End of self-consistent calculation

          k = 0.1250 0.1250 0.1250 (  1090 PWs)   bands (ev):

   -44.6347 -21.2596 -21.2424 -21.2414  -6.3305  -5.2605  -5.2414  -3.9596
    -3.9560  -3.9434  -3.7758  -3.7705   4.6581   7.3052   7.3156   8.0920
     9.0997   9.1425   9.8689   9.8809  10.0105  10.1569

          k = 0.1250 0.1250 0.3750 (  1095 PWs)   bands (ev):

   -44.6335 -21.3176 -21.2402 -21.2393  -5.9101  -5.1202  -5.0967  -4.0192
    -3.9544  -3.9395  -3.8686  -3.7452   3.9192   6.8366   7.3041   7.8458
     8.4738   8.7185   9.4144   9.9360  10.1452  10.9029

          k = 0.1250 0.3750 0.3750 (  1087 PWs)   bands (ev):

   -44.6322 -21.3141 -21.2960 -21.2376  -5.6951  -5.0102  -4.9369  -3.9932
    -3.9492  -3.8952  -3.8045  -3.6478   3.5534   6.7593   6.9018   7.1914
     7.5036   8.7003   9.4350   9.5095  10.0661  10.7207

          k = 0.3750 0.3750 0.3750 (  1082 PWs)   bands (ev):

   -44.6309 -21.3116 -21.2936 -21.2934  -5.3049  -5.1364  -5.1223  -3.9052
    -3.9011  -3.6142  -3.5507  -3.5398   4.1657   5.9415   5.9560   6.7111
     7.0725   7.0821   8.0125  10.6716  10.6972  10.7632

          k = 0.3750-0.1250 0.1250 (  1095 PWs)   bands (ev):

   -44.6335 -21.2997 -21.2573 -21.2398  -5.9253  -5.1383  -5.0736  -4.0187
    -3.9521  -3.9406  -3.8706  -3.7419   3.9232   6.8609   7.3605   7.8552
     8.4544   8.7756   9.3672   9.9399  10.0902  10.8728

          k = 0.3750-0.3750 0.1250 (  1087 PWs)   bands (ev):

   -44.6322 -21.2966 -21.2956 -21.2552  -5.7223  -4.9978  -4.9266  -3.9898
    -3.9468  -3.8892  -3.8019  -3.6632   3.5552   6.8249   6.8669   7.1904
     7.4930   8.6901   9.4847   9.5040  10.0486  10.7505

     highest occupied level (ev):    10.9029

!    total energy              =    -333.18227837 Ry
     estimated scf accuracy    <          1.8E-10 Ry

     The total energy is the sum of the following terms:
     one-electron contribution =     -76.62564309 Ry
     hartree contribution      =      66.30489134 Ry
     xc contribution           =     -49.65184596 Ry
     ewald contribution        =    -273.20968066 Ry

     convergence has been achieved in   9 iterations

     Forces acting on atoms (cartesian axes, Ry/au):

     atom    1 type  2   force =     0.00000000    0.00000000   -0.01346788
     atom    2 type  3   force =     0.00000000    0.00000000    0.01902675
     atom    3 type  1   force =     0.00000000    0.00000000   -0.00639322
     atom    4 type  1   force =     0.00000000    0.00000000   -0.00639322
     atom    5 type  1   force =     0.00000000    0.00000000    0.00722757

     Total force =     0.011575     Total SCF correction =     0.000008


     Computing stress (Cartesian axis) and pressure

          total   stress  (Ry/bohr**3)                   (kbar)     P=      -11.89
  -0.00009119   0.00000000   0.00000000          -13.42        0.00        0.00
   0.00000000  -0.00009119   0.00000000            0.00      -13.42        0.00
   0.00000000   0.00000000  -0.00006009            0.00        0.00       -8.84

     Energy error            =      2.2E-04 Ry
     Gradient error          =      7.2E-03 Ry/Bohr

     number of scf cycles    =   7
     number of bfgs steps    =   6

     energy             old  =    -333.1820601882 Ry
     energy             new  =    -333.1822783720 Ry

     CASE: energy            _new < energy            _old

     new trust radius        =       0.0440933382 bohr
     new conv_thr            =       0.0000000022 Ry


ATOMIC_POSITIONS (angstrom)
Pb               0.0000000000        0.0000000000        0.0000000000    0   0   0
Ti               1.9375000000        1.9375000000        1.8018700000    0   0   0
O                0.0000000000        1.9375000000        1.8735865677
O                1.9375000000        0.0000000000        1.8735865677
O                1.9375000000        1.9375000000       -0.0832778886


     Message from routine punch:
     Nothing written, as per user request (disk_io='none')
     NEW-OLD atomic charge density approx. for the potential

     total cpu time spent up to now is       48.8 secs

     Self-consistent Calculation

     iteration #  1     ecut=    30.00 Ry     beta= 0.70
     Davidson diagonalization with overlap
     ethr =  1.00E-06,  avg # of iterations =  8.3

     total cpu time spent up to now is       49.6 secs

     total energy              =    -333.18253019 Ry
     estimated scf accuracy    <       0.00039349 Ry

     iteration #  2     ecut=    30.00 Ry     beta= 0.70
     Davidson diagonalization with overlap
     ethr =  8.94E-07,  avg # of iterations =  2.8

     total cpu time spent up to now is       50.0 secs

     total energy              =    -333.18257632 Ry
     estimated scf accuracy    <       0.00004988 Ry

     iteration #  3     ecut=    30.00 Ry     beta= 0.70
     Davidson diagonalization with overlap
     ethr =  1.13E-07,  avg # of iterations =  4.7

     total cpu time spent up to now is       50.5 secs

     total energy              =    -333.18258284 Ry
     estimated scf accuracy    <       0.00004370 Ry

     iteration #  4     ecut=    30.00 Ry     beta= 0.70
     Davidson diagonalization with overlap
     ethr =  9.93E-08,  avg # of iterations =  4.2

     total cpu time spent up to now is       51.0 secs

     total energy              =    -333.18259325 Ry
     estimated scf accuracy    <       0.00000311 Ry

     iteration #  5     ecut=    30.00 Ry     beta= 0.70
     Davidson diagonalization with overlap
     ethr =  7.06E-09,  avg # of iterations =  4.8

     total cpu time spent up to now is       51.5 secs

     total energy              =    -333.18259365 Ry
     estimated scf accuracy    <       0.00000098 Ry

     iteration #  6     ecut=    30.00 Ry     beta= 0.70
     Davidson diagonalization with overlap
     ethr =  2.23E-09,  avg # of iterations =  4.5

     total cpu time spent up to now is       52.0 secs

     total energy              =    -333.18259389 Ry
     estimated scf accuracy    <       0.00000011 Ry

     iteration #  7     ecut=    30.00 Ry     beta= 0.70
     Davidson diagonalization with overlap
     ethr =  2.56E-10,  avg # of iterations =  3.3

     total cpu time spent up to now is       52.4 secs

     total energy              =    -333.18259390 Ry
     estimated scf accuracy    <       0.00000002 Ry

     iteration #  8     ecut=    30.00 Ry     beta= 0.70
     Davidson diagonalization with overlap
     ethr =  4.90E-11,  avg # of iterations =  4.7

     total cpu time spent up to now is       52.9 secs

     total energy              =    -333.18259391 Ry
     estimated scf accuracy    <          5.6E-09 Ry

     iteration #  9     ecut=    30.00 Ry     beta= 0.70
     Davidson diagonalization with overlap
     ethr =  1.27E-11,  avg # of iterations =  2.5

     total cpu time spent up to now is       53.4 secs

     End of self-consistent calculation

          k = 0.1250 0.1250 0.1250 (  1090 PWs)   bands (ev):

   -44.6484 -21.2646 -21.2571 -21.2562  -6.3342  -5.2574  -5.2560  -3.9549
    -3.9524  -3.9393  -3.7723  -3.7653   4.6614   7.3071   7.3129   8.0963
     9.1173   9.1442   9.8911   9.9168   9.9915  10.1358

          k = 0.1250 0.1250 0.3750 (  1095 PWs)   bands (ev):

   -44.6471 -21.3224 -21.2550 -21.2540  -5.9219  -5.1369  -5.0867  -4.0136
    -3.9494  -3.9356  -3.8632  -3.7410   3.9295   6.8412   7.3263   7.8444
     8.4574   8.7338   9.4023   9.9450  10.1283  10.8935

          k = 0.1250 0.3750 0.3750 (  1087 PWs)   bands (ev):

   -44.6459 -21.3188 -21.3109 -21.2524  -5.7064  -5.0090  -4.9391  -3.9883
    -3.9447  -3.8902  -3.7995  -3.6440   3.5582   6.7816   6.8743   7.1873
     7.4984   8.6892   9.4376   9.5034  10.0685  10.7276

          k = 0.3750 0.3750 0.3750 (  1082 PWs)   bands (ev):

   -44.6446 -21.3163 -21.3085 -21.3083  -5.3057  -5.1329  -5.1318  -3.9002
    -3.8973  -3.6098  -3.5452  -3.5366   4.1621   5.9476   5.9478   6.7149
     7.0549   7.0551   8.0208  10.6816  10.6916  10.7629

          k = 0.3750-0.1250 0.1250 (  1095 PWs)   bands (ev):

   -44.6471 -21.3146 -21.2623 -21.2545  -5.9255  -5.1420  -5.0838  -4.0147
    -3.9478  -3.9362  -3.8630  -3.7373   3.9253   6.8477   7.3524   7.8551
     8.4555   8.7623   9.3782   9.9431  10.1045  10.8771

          k = 0.3750-0.3750 0.1250 (  1087 PWs)   bands (ev):

   -44.6459 -21.3114 -21.3105 -21.2601  -5.7116  -5.0089  -4.9399  -3.9863
    -3.9413  -3.8828  -3.7953  -3.6566   3.5497   6.8169   6.8542   7.1890
     7.4917   8.6893   9.4757   9.5010  10.0572  10.7382

     highest occupied level (ev):    10.8935

!    total energy              =    -333.18259391 Ry
     estimated scf accuracy    <          1.9E-09 Ry

     The total energy is the sum of the following terms:
     one-electron contribution =     -76.67973958 Ry
     hartree contribution      =      66.32835812 Ry
     xc contribution           =     -49.65127540 Ry
     ewald contribution        =    -273.17993706 Ry

     convergence has been achieved in   9 iterations

     Forces acting on atoms (cartesian axes, Ry/au):

     atom    1 type  2   force =     0.00000000    0.00000000   -0.01200993
     atom    2 type  3   force =     0.00000000    0.00000000    0.01705382
     atom    3 type  1   force =     0.00000000    0.00000000   -0.00620298
     atom    4 type  1   force =     0.00000000    0.00000000   -0.00620298
     atom    5 type  1   force =     0.00000000    0.00000000    0.00736208

     Total force =     0.011452     Total SCF correction =     0.000015


     Computing stress (Cartesian axis) and pressure

          total   stress  (Ry/bohr**3)                   (kbar)     P=      -12.14
  -0.00008496   0.00000000   0.00000000          -12.50        0.00        0.00
   0.00000000  -0.00008496   0.00000000            0.00      -12.50        0.00
   0.00000000   0.00000000  -0.00007769            0.00        0.00      -11.43

     Energy error            =      3.2E-04 Ry
     Gradient error          =      7.4E-03 Ry/Bohr

     number of scf cycles    =   8
     number of bfgs steps    =   7

     energy             old  =    -333.1822783720 Ry
     energy             new  =    -333.1825939081 Ry

     CASE: energy            _new < energy            _old

     new trust radius        =       0.0661400074 bohr
     new conv_thr            =       0.0000000032 Ry


ATOMIC_POSITIONS (angstrom)
Pb               0.0000000000        0.0000000000        0.0000000000    0   0   0
Ti               1.9375000000        1.9375000000        1.8018700000    0   0   0
O                0.0000000000        1.9375000000        1.8385867831
O                1.9375000000        0.0000000000        1.8385867831
O                1.9375000000        1.9375000000       -0.1083531541


     Message from routine punch:
     Nothing written, as per user request (disk_io='none')
     NEW-OLD atomic charge density approx. for the potential

     total cpu time spent up to now is       55.0 secs

     Self-consistent Calculation

     iteration #  1     ecut=    30.00 Ry     beta= 0.70
     Davidson diagonalization with overlap
     ethr =  1.00E-06,  avg # of iterations =  9.3

     total cpu time spent up to now is       55.6 secs

     total energy              =    -333.18293014 Ry
     estimated scf accuracy    <       0.00086044 Ry

     iteration #  2     ecut=    30.00 Ry     beta= 0.70
     Davidson diagonalization with overlap
     ethr =  1.96E-06,  avg # of iterations =  2.3

     total cpu time spent up to now is       56.0 secs

     total energy              =    -333.18304169 Ry
     estimated scf accuracy    <       0.00006717 Ry

     iteration #  3     ecut=    30.00 Ry     beta= 0.70
     Davidson diagonalization with overlap
     ethr =  1.53E-07,  avg # of iterations =  4.2

     total cpu time spent up to now is       56.5 secs

     total energy              =    -333.18305069 Ry
     estimated scf accuracy    <       0.00003650 Ry

     iteration #  4     ecut=    30.00 Ry     beta= 0.70
     Davidson diagonalization with overlap
     ethr =  8.29E-08,  avg # of iterations =  4.8

     total cpu time spent up to now is       57.0 secs

     total energy              =    -333.18305964 Ry
     estimated scf accuracy    <       0.00001137 Ry

     iteration #  5     ecut=    30.00 Ry     beta= 0.70
     Davidson diagonalization with overlap
     ethr =  2.58E-08,  avg # of iterations =  3.7

     total cpu time spent up to now is       57.4 secs

     total energy              =    -333.18306168 Ry
     estimated scf accuracy    <       0.00000035 Ry

     iteration #  6     ecut=    30.00 Ry     beta= 0.70
     Davidson diagonalization with overlap
     ethr =  7.87E-10,  avg # of iterations =  5.5

     total cpu time spent up to now is       58.1 secs

     total energy              =    -333.18306187 Ry
     estimated scf accuracy    <       0.00000068 Ry

     iteration #  7     ecut=    30.00 Ry     beta= 0.70
     Davidson diagonalization with overlap
     ethr =  7.87E-10,  avg # of iterations =  4.2

     total cpu time spent up to now is       58.6 secs

     total energy              =    -333.18306193 Ry
     estimated scf accuracy    <       0.00000007 Ry

     iteration #  8     ecut=    30.00 Ry     beta= 0.70
     Davidson diagonalization with overlap
     ethr =  1.70E-10,  avg # of iterations =  4.5

     total cpu time spent up to now is       59.0 secs

     total energy              =    -333.18306194 Ry
     estimated scf accuracy    <          4.1E-09 Ry

     iteration #  9     ecut=    30.00 Ry     beta= 0.70
     Davidson diagonalization with overlap
     ethr =  9.30E-12,  avg # of iterations =  4.8

     total cpu time spent up to now is       59.4 secs

     End of self-consistent calculation

          k = 0.1250 0.1250 0.1250 (  1090 PWs)   bands (ev):

   -44.6640 -21.2743 -21.2731 -21.2708  -6.3426  -5.2783  -5.2532  -3.9468
    -3.9453  -3.9312  -3.7660  -3.7535   4.6659   7.3049   7.3098   8.1005
     9.1346   9.1421   9.8978   9.9677   9.9691  10.1098

          k = 0.1250 0.1250 0.3750 (  1095 PWs)   bands (ev):

   -44.6627 -21.3288 -21.2720 -21.2710  -5.9413  -5.1627  -5.0733  -4.0035
    -3.9403  -3.9279  -3.8511  -3.7336   3.9429   6.8475   7.3452   7.8364
     8.4404   8.7504   9.3840   9.9518  10.1035  10.8843

          k = 0.1250 0.3750 0.3750 (  1087 PWs)   bands (ev):

   -44.6615 -21.3281 -21.3251 -21.2693  -5.7247  -5.0176  -4.9381  -3.9793
    -3.9364  -3.8810  -3.7900  -3.6346   3.5659   6.8046   6.8404   7.1782
     7.4916   8.6726   9.4310   9.5004  10.0738  10.7337

          k = 0.3750 0.3750 0.3750 (  1082 PWs)   bands (ev):

   -44.6602 -21.3257 -21.3254 -21.3226  -5.3121  -5.1486  -5.1274  -3.8912
    -3.8897  -3.6026  -3.5351  -3.5284   4.1537   5.9352   5.9552   6.7147
     7.0248   7.0363   8.0391  10.6760  10.6907  10.7640

          k = 0.3750-0.1250 0.1250 (  1095 PWs)   bands (ev):

   -44.6627 -21.3316 -21.2715 -21.2687  -5.9295  -5.1499  -5.1001  -4.0072
    -3.9398  -3.9275  -3.8485  -3.7275   3.9280   6.8300   7.3404   7.8536
     8.4528   8.7469   9.3881   9.9425  10.1157  10.8846

          k = 0.3750-0.3750 0.1250 (  1087 PWs)   bands (ev):

   -44.6615 -21.3285 -21.3276 -21.2667  -5.6992  -5.0286  -4.9636  -3.9792
    -3.9307  -3.8691  -3.7814  -3.6462   3.5397   6.8042   6.8370   7.1866
     7.4920   8.6898   9.4649   9.4966  10.0704  10.7185

     highest occupied level (ev):    10.8846

!    total energy              =    -333.18306194 Ry
     estimated scf accuracy    <          4.4E-10 Ry

     The total energy is the sum of the following terms:
     one-electron contribution =     -76.80104006 Ry
     hartree contribution      =      66.38478473 Ry
     xc contribution           =     -49.65194942 Ry
     ewald contribution        =    -273.11485719 Ry

     convergence has been achieved in   9 iterations

     Forces acting on atoms (cartesian axes, Ry/au):

     atom    1 type  2   force =     0.00000000    0.00000000   -0.01009254
     atom    2 type  3   force =     0.00000000    0.00000000    0.01551742
     atom    3 type  1   force =     0.00000000    0.00000000   -0.00576706
     atom    4 type  1   force =     0.00000000    0.00000000   -0.00576706
     atom    5 type  1   force =     0.00000000    0.00000000    0.00610924

     Total force =     0.010190     Total SCF correction =     0.000004


     Computing stress (Cartesian axis) and pressure

          total   stress  (Ry/bohr**3)                   (kbar)     P=      -11.96
  -0.00007664   0.00000000   0.00000000          -11.27        0.00        0.00
   0.00000000  -0.00007664   0.00000000            0.00      -11.27        0.00
   0.00000000   0.00000000  -0.00009067            0.00        0.00      -13.34

     Energy error            =      4.7E-04 Ry
     Gradient error          =      6.1E-03 Ry/Bohr

     number of scf cycles    =   9
     number of bfgs steps    =   8

     energy             old  =    -333.1825939081 Ry
     energy             new  =    -333.1830619435 Ry

     CASE: energy            _new < energy            _old


     WARNING: bfgs curvature condition failed, Theta= 0.773
     new trust radius        =       0.0992100110 bohr
     new conv_thr            =       0.0000000047 Ry


ATOMIC_POSITIONS (angstrom)
Pb               0.0000000000        0.0000000000        0.0000000000    0   0   0
Ti               1.9375000000        1.9375000000        1.8018700000    0   0   0
O                0.0000000000        1.9375000000        1.7860871062
O                1.9375000000        0.0000000000        1.7860871062
O                1.9375000000        1.9375000000       -0.1452389925


     Message from routine punch:
     Nothing written, as per user request (disk_io='none')
     NEW-OLD atomic charge density approx. for the potential

     total cpu time spent up to now is       61.0 secs

     Self-consistent Calculation

     iteration #  1     ecut=    30.00 Ry     beta= 0.70
     Davidson diagonalization with overlap
     ethr =  1.00E-06,  avg # of iterations =  9.5

     total cpu time spent up to now is       61.7 secs

     total energy              =    -333.18355430 Ry
     estimated scf accuracy    <       0.00186852 Ry

     iteration #  2     ecut=    30.00 Ry     beta= 0.70
     Davidson diagonalization with overlap
     ethr =  4.25E-06,  avg # of iterations =  2.2

     total cpu time spent up to now is       62.2 secs

     total energy              =    -333.18379597 Ry
     estimated scf accuracy    <       0.00009973 Ry

     iteration #  3     ecut=    30.00 Ry     beta= 0.70
     Davidson diagonalization with overlap
     ethr =  2.27E-07,  avg # of iterations =  4.0

     total cpu time spent up to now is       62.8 secs

     total energy              =    -333.18381356 Ry
     estimated scf accuracy    <       0.00003175 Ry

     iteration #  4     ecut=    30.00 Ry     beta= 0.70
     Davidson diagonalization with overlap
     ethr =  7.22E-08,  avg # of iterations =  4.7

     total cpu time spent up to now is       63.4 secs

     total energy              =    -333.18381941 Ry
     estimated scf accuracy    <       0.00001332 Ry

     iteration #  5     ecut=    30.00 Ry     beta= 0.70
     Davidson diagonalization with overlap
     ethr =  3.03E-08,  avg # of iterations =  4.7

     total cpu time spent up to now is       64.0 secs

     total energy              =    -333.18382236 Ry
     estimated scf accuracy    <       0.00000202 Ry

     iteration #  6     ecut=    30.00 Ry     beta= 0.70
     Davidson diagonalization with overlap
     ethr =  4.59E-09,  avg # of iterations =  4.3

     total cpu time spent up to now is       64.5 secs

     total energy              =    -333.18382270 Ry
     estimated scf accuracy    <       0.00000052 Ry

     iteration #  7     ecut=    30.00 Ry     beta= 0.70
     Davidson diagonalization with overlap
     ethr =  1.18E-09,  avg # of iterations =  4.5

     total cpu time spent up to now is       64.9 secs

     total energy              =    -333.18382279 Ry
     estimated scf accuracy    <       0.00000001 Ry

     iteration #  8     ecut=    30.00 Ry     beta= 0.70
     Davidson diagonalization with overlap
     ethr =  2.78E-11,  avg # of iterations =  6.7

     total cpu time spent up to now is       65.5 secs

     total energy              =    -333.18382280 Ry
     estimated scf accuracy    <       0.00000002 Ry

     iteration #  9     ecut=    30.00 Ry     beta= 0.70
     Davidson diagonalization with overlap
     ethr =  2.78E-11,  avg # of iterations =  4.7

     total cpu time spent up to now is       65.9 secs

     End of self-consistent calculation

          k = 0.1250 0.1250 0.1250 (  1090 PWs)   bands (ev):

   -44.6782 -21.2898 -21.2887 -21.2798  -6.3611  -5.3123  -5.2487  -3.9316
    -3.9309  -3.9144  -3.7539  -3.7269   4.6723   7.2903   7.3065   8.1016
     9.1304   9.1408   9.8819   9.9496   9.9497  10.1370

          k = 0.1250 0.1250 0.3750 (  1095 PWs)   bands (ev):

   -44.6770 -21.3374 -21.2875 -21.2866  -5.9738  -5.2022  -5.0576  -3.9843
    -3.9233  -3.9117  -3.8238  -3.7197   3.9586   6.8544   7.3383   7.8118
     8.4358   8.7581   9.3594   9.9453  10.0698  10.8829

          k = 0.1250 0.3750 0.3750 (  1087 PWs)   bands (ev):

   -44.6757 -21.3437 -21.3338 -21.2849  -5.7540  -5.0473  -4.9332  -3.9622
    -3.9200  -3.8632  -3.7704  -3.6115   3.5786   6.7679   6.8521   7.1607
     7.4815   8.6495   9.4096   9.4978  10.0880  10.7322

          k = 0.3750 0.3750 0.3750 (  1082 PWs)   bands (ev):

   -44.6744 -21.3413 -21.3410 -21.3313  -5.3317  -5.1786  -5.1204  -3.8741
    -3.8738  -3.5902  -3.5160  -3.5086   4.1349   5.9180   5.9613   6.7015
     7.0029   7.0262   8.0800  10.6452  10.6916  10.7616

          k = 0.3750-0.1250 0.1250 (  1095 PWs)   bands (ev):

   -44.6770 -21.3473 -21.2871 -21.2776  -5.9433  -5.1694  -5.1246  -3.9920
    -3.9242  -3.9099  -3.8196  -3.7063   3.9313   6.8081   7.3239   7.8477
     8.4383   8.7354   9.3889   9.9306  10.1086  10.8982

          k = 0.3750-0.3750 0.1250 (  1087 PWs)   bands (ev):

   -44.6757 -21.3441 -21.3432 -21.2755  -5.6893  -5.0639  -5.0066  -3.9640
    -3.9094  -3.8402  -3.7514  -3.6291   3.5212   6.7835   6.8167   7.1841
     7.4985   8.6939   9.4559   9.4894  10.0900  10.6864

     highest occupied level (ev):    10.8982

!    total energy              =    -333.18382281 Ry
     estimated scf accuracy    <          4.5E-10 Ry

     The total energy is the sum of the following terms:
     one-electron contribution =     -77.06609432 Ry
     hartree contribution      =      66.51388257 Ry
     xc contribution           =     -49.65601173 Ry
     ewald contribution        =    -272.97559933 Ry

     convergence has been achieved in   9 iterations

     Forces acting on atoms (cartesian axes, Ry/au):

     atom    1 type  2   force =     0.00000000    0.00000000   -0.00771386
     atom    2 type  3   force =     0.00000000    0.00000000    0.01513213
     atom    3 type  1   force =     0.00000000    0.00000000   -0.00487787
     atom    4 type  1   force =     0.00000000    0.00000000   -0.00487787
     atom    5 type  1   force =     0.00000000    0.00000000    0.00233748

     Total force =     0.007284     Total SCF correction =     0.000019


     Computing stress (Cartesian axis) and pressure

          total   stress  (Ry/bohr**3)                   (kbar)     P=       -9.99
  -0.00006190   0.00000000   0.00000000           -9.11        0.00        0.00
   0.00000000  -0.00006190   0.00000000            0.00       -9.11        0.00
   0.00000000   0.00000000  -0.00007990            0.00        0.00      -11.75

     Energy error            =      7.6E-04 Ry
     Gradient error          =      4.9E-03 Ry/Bohr

     number of scf cycles    =  10
     number of bfgs steps    =   9

     energy             old  =    -333.1830619435 Ry
     energy             new  =    -333.1838228081 Ry

     CASE: energy            _new < energy            _old


     WARNING: bfgs curvature condition failed, Theta= 0.029
     new trust radius        =       0.1488150165 bohr
     new conv_thr            =       0.0000000049 Ry


ATOMIC_POSITIONS (angstrom)
Pb               0.0000000000        0.0000000000        0.0000000000    0   0   0
Ti               1.9375000000        1.9375000000        1.8018700000    0   0   0
O                0.0000000000        1.9375000000        1.7073375908
O                1.9375000000        0.0000000000        1.7073375908
O                1.9375000000        1.9375000000       -0.2005735619


     Message from routine punch:
     Nothing written, as per user request (disk_io='none')
     NEW-OLD atomic charge density approx. for the potential

     total cpu time spent up to now is       67.4 secs

     Self-consistent Calculation

     iteration #  1     ecut=    30.00 Ry     beta= 0.70
     Davidson diagonalization with overlap
     ethr =  1.00E-06,  avg # of iterations = 11.5

     total cpu time spent up to now is       68.3 secs

     total energy              =    -333.18447724 Ry
     estimated scf accuracy    <       0.00423392 Ry

     iteration #  2     ecut=    30.00 Ry     beta= 0.70
     Davidson diagonalization with overlap
     ethr =  9.62E-06,  avg # of iterations =  2.0

     total cpu time spent up to now is       68.7 secs

     total energy              =    -333.18501600 Ry
     estimated scf accuracy    <       0.00017759 Ry

     iteration #  3     ecut=    30.00 Ry     beta= 0.70
     Davidson diagonalization with overlap
     ethr =  4.04E-07,  avg # of iterations =  3.8

     total cpu time spent up to now is       69.1 secs

     total energy              =    -333.18504387 Ry
     estimated scf accuracy    <       0.00006651 Ry

     iteration #  4     ecut=    30.00 Ry     beta= 0.70
     Davidson diagonalization with overlap
     ethr =  1.51E-07,  avg # of iterations =  4.3

     total cpu time spent up to now is       69.5 secs

     total energy              =    -333.18505849 Ry
     estimated scf accuracy    <       0.00002854 Ry

     iteration #  5     ecut=    30.00 Ry     beta= 0.70
     Davidson diagonalization with overlap
     ethr =  6.49E-08,  avg # of iterations =  3.8

     total cpu time spent up to now is       69.9 secs

     total energy              =    -333.18506460 Ry
     estimated scf accuracy    <       0.00000046 Ry

     iteration #  6     ecut=    30.00 Ry     beta= 0.70
     Davidson diagonalization with overlap
     ethr =  1.04E-09,  avg # of iterations =  5.7

     total cpu time spent up to now is       70.4 secs

     total energy              =    -333.18506482 Ry
     estimated scf accuracy    <       0.00000072 Ry

     iteration #  7     ecut=    30.00 Ry     beta= 0.70
     Davidson diagonalization with overlap
     ethr =  1.04E-09,  avg # of iterations =  4.2

     total cpu time spent up to now is       70.8 secs

     total energy              =    -333.18506488 Ry
     estimated scf accuracy    <       0.00000007 Ry

     iteration #  8     ecut=    30.00 Ry     beta= 0.70
     Davidson diagonalization with overlap
     ethr =  1.67E-10,  avg # of iterations =  4.7

     total cpu time spent up to now is       71.2 secs

     total energy              =    -333.18506491 Ry
     estimated scf accuracy    <       0.00000003 Ry

     iteration #  9     ecut=    30.00 Ry     beta= 0.70
     Davidson diagonalization with overlap
     ethr =  6.83E-11,  avg # of iterations =  2.0

     total cpu time spent up to now is       71.6 secs

     total energy              =    -333.18506491 Ry
     estimated scf accuracy    <       0.00000001 Ry

     iteration # 10     ecut=    30.00 Ry     beta= 0.70
     Davidson diagonalization with overlap
     ethr =  2.59E-11,  avg # of iterations =  4.7

[...]

          k = 0.3750 0.3750 0.3750 (  1082 PWs)   bands (ev):

   -44.6544 -21.3434 -21.3205 -21.3204  -5.4231  -5.2813  -5.1227  -3.8117
    -3.8087  -3.5510  -3.4448  -3.4171   4.0524   5.8798   5.9525   6.6191
     7.0778   7.0872   8.2521  10.5509  10.6189  10.7022

          k = 0.3750-0.1250 0.1250 (  1095 PWs)   bands (ev):

   -44.6570 -21.3267 -21.2894 -21.2668  -6.0148  -5.2653  -5.1853  -3.9307
    -3.8651  -3.8436  -3.7131  -3.6117   3.9364   6.7813   7.2889   7.8120
     8.3573   8.7625   9.3129   9.8428   9.9705  10.9332

          k = 0.3750-0.3750 0.1250 (  1087 PWs)   bands (ev):

   -44.6557 -21.3236 -21.3226 -21.2871  -5.7135  -5.1788  -5.1490  -3.9003
    -3.8342  -3.7298  -3.6264  -3.5741   3.4536   6.7301   6.8075   7.1844
     7.5432   8.7160   9.4599   9.4666  10.1404  10.5901

     highest occupied level (ev):    10.9429

!    total energy              =    -333.18573339 Ry
     estimated scf accuracy    <          2.0E-09 Ry

     The total energy is the sum of the following terms:
     one-electron contribution =     -78.19228936 Ry
     hartree contribution      =      67.08550570 Ry
     xc contribution           =     -49.68361696 Ry
     ewald contribution        =    -272.39533277 Ry

     convergence has been achieved in  13 iterations

     Forces acting on atoms (cartesian axes, Ry/au):

     atom    1 type  2   force =     0.00000000    0.00000000   -0.00487138
     atom    2 type  3   force =     0.00000000    0.00000000    0.00914711
     atom    3 type  1   force =     0.00000000    0.00000000   -0.00079454
     atom    4 type  1   force =     0.00000000    0.00000000   -0.00079454
     atom    5 type  1   force =     0.00000000    0.00000000   -0.00268665

     Total force =     0.002912     Total SCF correction =     0.000017


     Computing stress (Cartesian axis) and pressure

          total   stress  (Ry/bohr**3)                   (kbar)     P=        3.86
  -0.00001868   0.00000000   0.00000000           -2.75        0.00        0.00
   0.00000000  -0.00001868   0.00000000            0.00       -2.75        0.00
   0.00000000   0.00000000   0.00011601            0.00        0.00       17.06

     Energy error            =      2.0E-04 Ry
     Gradient error          =      2.7E-03 Ry/Bohr

     number of scf cycles    =  13
     number of bfgs steps    =  12

     energy             old  =    -333.1855345082 Ry
     energy             new  =    -333.1857333925 Ry

     CASE: energy            _new < energy            _old

     new trust radius        =       0.0337529716 bohr
     new conv_thr            =       0.0000000020 Ry


ATOMIC_POSITIONS (angstrom)
Pb               0.0000000000        0.0000000000        0.0000000000    0   0   0
Ti               1.9375000000        1.9375000000        1.8018700000    0   0   0
O                0.0000000000        1.9375000000        1.6322106556
O                1.9375000000        0.0000000000        1.6322106556
O                1.9375000000        1.9375000000       -0.2544557807


     Message from routine punch:
     Nothing written, as per user request (disk_io='none')
     NEW-OLD atomic charge density approx. for the potential

     total cpu time spent up to now is       87.2 secs

     Self-consistent Calculation

     iteration #  1     ecut=    30.00 Ry     beta= 0.70
     Davidson diagonalization with overlap
     ethr =  1.00E-06,  avg # of iterations =  8.0

     total cpu time spent up to now is       87.9 secs

     total energy              =    -333.18577139 Ry
     estimated scf accuracy    <       0.00023618 Ry

     iteration #  2     ecut=    30.00 Ry     beta= 0.70
     Davidson diagonalization with overlap
     ethr =  5.37E-07,  avg # of iterations =  2.7

     total cpu time spent up to now is       88.3 secs

     total energy              =    -333.18580245 Ry
     estimated scf accuracy    <       0.00002358 Ry

     iteration #  3     ecut=    30.00 Ry     beta= 0.70
     Davidson diagonalization with overlap
     ethr =  5.36E-08,  avg # of iterations =  4.5

     total cpu time spent up to now is       88.7 secs

     total energy              =    -333.18580629 Ry
     estimated scf accuracy    <       0.00001746 Ry

     iteration #  4     ecut=    30.00 Ry     beta= 0.70
     Davidson diagonalization with overlap
     ethr =  3.97E-08,  avg # of iterations =  4.3

     total cpu time spent up to now is       89.1 secs

     total energy              =    -333.18581057 Ry
     estimated scf accuracy    <       0.00000281 Ry

     iteration #  5     ecut=    30.00 Ry     beta= 0.70
     Davidson diagonalization with overlap
     ethr =  6.38E-09,  avg # of iterations =  3.8

     total cpu time spent up to now is       89.6 secs

     total energy              =    -333.18581103 Ry
     estimated scf accuracy    <       0.00000014 Ry

     iteration #  6     ecut=    30.00 Ry     beta= 0.70
     Davidson diagonalization with overlap
     ethr =  3.29E-10,  avg # of iterations =  5.5

     total cpu time spent up to now is       90.0 secs

     total energy              =    -333.18581111 Ry
     estimated scf accuracy    <       0.00000018 Ry

     iteration #  7     ecut=    30.00 Ry     beta= 0.70
     Davidson diagonalization with overlap
     ethr =  3.29E-10,  avg # of iterations =  3.0

     total cpu time spent up to now is       90.4 secs

     total energy              =    -333.18581110 Ry
     estimated scf accuracy    <       0.00000005 Ry

     iteration #  8     ecut=    30.00 Ry     beta= 0.70
     Davidson diagonalization with overlap
     ethr =  1.09E-10,  avg # of iterations =  5.0

     total cpu time spent up to now is       90.9 secs

     total energy              =    -333.18581112 Ry
     estimated scf accuracy    <       0.00000004 Ry

     iteration #  9     ecut=    30.00 Ry     beta= 0.70
     Davidson diagonalization with overlap
     ethr =  9.38E-11,  avg # of iterations =  1.0

     total cpu time spent up to now is       91.3 secs

     total energy              =    -333.18581112 Ry
     estimated scf accuracy    <       0.00000002 Ry

     iteration # 10     ecut=    30.00 Ry     beta= 0.70
     Davidson diagonalization with overlap
     ethr =  4.66E-11,  avg # of iterations =  3.5

     total cpu time spent up to now is       91.7 secs

     End of self-consistent calculation

          k = 0.1250 0.1250 0.1250 (  1090 PWs)   bands (ev):

   -44.6485 -21.2921 -21.2593 -21.2584  -6.4492  -5.4128  -5.2524  -3.8676
    -3.8655  -3.8379  -3.7010  -3.5905   4.6899   7.1793   7.2930   8.0771
     9.0309   9.0523   9.6355   9.7517   9.9158  10.2536

          k = 0.1250 0.1250 0.3750 (  1095 PWs)   bands (ev):

   -44.6473 -21.3500 -21.2571 -21.2562  -6.0850  -5.3198  -5.0455  -3.9079
    -3.8507  -3.8365  -3.6811  -3.6636   3.9755   6.8428   7.1128   7.6883
     8.5342   8.6471   9.3191   9.8249   9.9858  10.9561

          k = 0.1250 0.3750 0.3750 (  1087 PWs)   bands (ev):

   -44.6460 -21.3463 -21.3126 -21.2546  -5.8489  -5.1885  -4.9531  -3.8909
    -3.8455  -3.7894  -3.6779  -3.4893   3.6219   6.5684   6.9180   7.1207
     7.4194   8.6131   9.3394   9.4244  10.1735  10.6545

          k = 0.3750 0.3750 0.3750 (  1082 PWs)   bands (ev):

   -44.6447 -21.3438 -21.3102 -21.3101  -5.4383  -5.2972  -5.1255  -3.8019
    -3.7980  -3.5456  -3.4329  -3.4013   4.0382   5.8750   5.9495   6.6055
     7.1007   7.1035   8.2805  10.5377  10.6009  10.6872

          k = 0.3750-0.1250 0.1250 (  1095 PWs)   bands (ev):

   -44.6473 -21.3165 -21.2896 -21.2567  -6.0271  -5.2812  -5.1941  -3.9206
    -3.8558  -3.8332  -3.6970  -3.5947   3.9366   6.7813   7.2841   7.8054
     8.3446   8.7701   9.2938   9.8254   9.9433  10.9366

          k = 0.3750-0.3750 0.1250 (  1087 PWs)   bands (ev):

   -44.6460 -21.3134 -21.3123 -21.2872  -5.7213  -5.1956  -5.1702  -3.8896
    -3.8230  -3.7131  -3.6056  -3.5652   3.4426   6.7241   6.8116   7.1839
     7.5509   8.7196   9.4545   9.4700  10.1483  10.5760

     highest occupied level (ev):    10.9561

!    total energy              =    -333.18581112 Ry
     estimated scf accuracy    <          1.1E-09 Ry

     The total energy is the sum of the following terms:
     one-electron contribution =     -78.38949978 Ry
     hartree contribution      =      67.18726284 Ry
     xc contribution           =     -49.68927422 Ry
     ewald contribution        =    -272.29429996 Ry

     convergence has been achieved in  10 iterations

     Forces acting on atoms (cartesian axes, Ry/au):

     atom    1 type  2   force =     0.00000000    0.00000000   -0.00490103
     atom    2 type  3   force =     0.00000000    0.00000000    0.00616605
     atom    3 type  1   force =     0.00000000    0.00000000    0.00008682
     atom    4 type  1   force =     0.00000000    0.00000000    0.00008682
     atom    5 type  1   force =     0.00000000    0.00000000   -0.00143866

     Total force =     0.001444     Total SCF correction =     0.000020


     Computing stress (Cartesian axis) and pressure

          total   stress  (Ry/bohr**3)                   (kbar)     P=        6.65
  -0.00001340   0.00000000   0.00000000           -1.97        0.00        0.00
   0.00000000  -0.00001340   0.00000000            0.00       -1.97        0.00
   0.00000000   0.00000000   0.00016246            0.00        0.00       23.90

     Energy error            =      7.8E-05 Ry
     Gradient error          =      1.4E-03 Ry/Bohr

     number of scf cycles    =  14
     number of bfgs steps    =  13

     energy             old  =    -333.1857333925 Ry
     energy             new  =    -333.1858111213 Ry

     CASE: energy            _new < energy            _old

     new trust radius        =       0.0108236613 bohr
     new conv_thr            =       0.0000000010 Ry


ATOMIC_POSITIONS (angstrom)
Pb               0.0000000000        0.0000000000        0.0000000000    0   0   0
Ti               1.9375000000        1.9375000000        1.8018700000    0   0   0
O                0.0000000000        1.9375000000        1.6264830207
O                1.9375000000        0.0000000000        1.6264830207
O                1.9375000000        1.9375000000       -0.2588248510


     Message from routine punch:
     Nothing written, as per user request (disk_io='none')
     NEW-OLD atomic charge density approx. for the potential

     total cpu time spent up to now is       93.3 secs

     Self-consistent Calculation

     iteration #  1     ecut=    30.00 Ry     beta= 0.70
     Davidson diagonalization with overlap
     ethr =  1.00E-06,  avg # of iterations =  4.7

     Threshold (ethr) on eigenvalues was too large:
     Diagonalizing with lowered threshold

     Davidson diagonalization with overlap
     ethr =  5.42E-08,  avg # of iterations =  4.2

     total cpu time spent up to now is       94.3 secs

     total energy              =    -333.18580913 Ry
     estimated scf accuracy    <       0.00002621 Ry

     iteration #  2     ecut=    30.00 Ry     beta= 0.70
     Davidson diagonalization with overlap
     ethr =  5.96E-08,  avg # of iterations =  4.0

     total cpu time spent up to now is       94.7 secs

     total energy              =    -333.18580973 Ry
     estimated scf accuracy    <       0.00001029 Ry

     iteration #  3     ecut=    30.00 Ry     beta= 0.70
     Davidson diagonalization with overlap
     ethr =  2.34E-08,  avg # of iterations =  4.8

     total cpu time spent up to now is       95.3 secs

     total energy              =    -333.18581221 Ry
     estimated scf accuracy    <       0.00001001 Ry

     iteration #  4     ecut=    30.00 Ry     beta= 0.70
     Davidson diagonalization with overlap
     ethr =  2.28E-08,  avg # of iterations =  3.2

     total cpu time spent up to now is       95.8 secs

     total energy              =    -333.18581333 Ry
     estimated scf accuracy    <       0.00000051 Ry

     iteration #  5     ecut=    30.00 Ry     beta= 0.70
     Davidson diagonalization with overlap
     ethr =  1.16E-09,  avg # of iterations =  6.0

     total cpu time spent up to now is       96.4 secs

     total energy              =    -333.18581391 Ry
     estimated scf accuracy    <       0.00000105 Ry

     iteration #  6     ecut=    30.00 Ry     beta= 0.70
     Davidson diagonalization with overlap
     ethr =  1.16E-09,  avg # of iterations =  2.3

     total cpu time spent up to now is       96.9 secs

     total energy              =    -333.18581380 Ry
     estimated scf accuracy    <       0.00000063 Ry

     iteration #  7     ecut=    30.00 Ry     beta= 0.70
     Davidson diagonalization with overlap
     ethr =  1.16E-09,  avg # of iterations =  3.0

     total cpu time spent up to now is       97.5 secs

     total energy              =    -333.18581382 Ry
     estimated scf accuracy    <       0.00000014 Ry

     iteration #  8     ecut=    30.00 Ry     beta= 0.70
     Davidson diagonalization with overlap
     ethr =  3.17E-10,  avg # of iterations =  4.7

     total cpu time spent up to now is       98.2 secs

     total energy              =    -333.18581386 Ry
     estimated scf accuracy    <          7.7E-09 Ry

     iteration #  9     ecut=    30.00 Ry     beta= 0.70
     Davidson diagonalization with overlap
     ethr =  1.76E-11,  avg # of iterations =  2.7

     total cpu time spent up to now is       98.7 secs

     total energy              =    -333.18581386 Ry
     estimated scf accuracy    <          5.0E-09 Ry

     iteration # 10     ecut=    30.00 Ry     beta= 0.70
     Davidson diagonalization with overlap
     ethr =  1.13E-11,  avg # of iterations =  4.3

     total cpu time spent up to now is       99.2 secs

     End of self-consistent calculation

          k = 0.1250 0.1250 0.1250 (  1090 PWs)   bands (ev):

   -44.6449 -21.2921 -21.2554 -21.2545  -6.4532  -5.4166  -5.2530  -3.8648
    -3.8626  -3.8345  -3.6987  -3.5839   4.6905   7.1737   7.2920   8.0760
     9.0231   9.0483   9.6216   9.7451   9.9142  10.2537

          k = 0.1250 0.1250 0.3750 (  1095 PWs)   bands (ev):

   -44.6436 -21.3501 -21.2533 -21.2523  -6.0894  -5.3242  -5.0459  -3.9047
    -3.8475  -3.8331  -3.6741  -3.6613   3.9752   6.8408   7.1006   7.6837
     8.5390   8.6395   9.3180   9.8184   9.9824  10.9604

          k = 0.1250 0.3750 0.3750 (  1087 PWs)   bands (ev):

   -44.6424 -21.3464 -21.3087 -21.2507  -5.8526  -5.1948  -4.9550  -3.8878
    -3.8421  -3.7862  -3.6736  -3.4834   3.6236   6.5596   6.9192   7.1212
     7.4156   8.6129   9.3369   9.4191  10.1769  10.6502

          k = 0.3750 0.3750 0.3750 (  1082 PWs)   bands (ev):

   -44.6411 -21.3438 -21.3063 -21.3062  -5.4433  -5.3024  -5.1266  -3.7988
    -3.7946  -3.5440  -3.4290  -3.3962   4.0334   5.8734   5.9485   6.6011
     7.1087   7.1091   8.2898  10.5334  10.5945  10.6819

          k = 0.3750-0.1250 0.1250 (  1095 PWs)   bands (ev):

   -44.6437 -21.3126 -21.2897 -21.2528  -6.0311  -5.2864  -5.1970  -3.9173
    -3.8528  -3.8299  -3.6918  -3.5890   3.9366   6.7816   7.2824   7.8033
     8.3405   8.7726   9.2869   9.8195   9.9342  10.9375

          k = 0.3750-0.3750 0.1250 (  1087 PWs)   bands (ev):

   -44.6424 -21.3096 -21.3084 -21.2872  -5.7240  -5.2011  -5.1771  -3.8862
    -3.8194  -3.7078  -3.5988  -3.5623   3.4389   6.7223   6.8132   7.1836
     7.5533   8.7208   9.4526   9.4710  10.1510  10.5715

     highest occupied level (ev):    10.9604

!    total energy              =    -333.18581386 Ry
     estimated scf accuracy    <          3.9E-11 Ry

     The total energy is the sum of the following terms:
     one-electron contribution =     -78.45681971 Ry
     hartree contribution      =      67.22222054 Ry
     xc contribution           =     -49.69126305 Ry
     ewald contribution        =    -272.25995164 Ry

     convergence has been achieved in  10 iterations

     Forces acting on atoms (cartesian axes, Ry/au):

     atom    1 type  2   force =     0.00000000    0.00000000   -0.00492847
     atom    2 type  3   force =     0.00000000    0.00000000    0.00499038
     atom    3 type  1   force =     0.00000000    0.00000000    0.00035579
     atom    4 type  1   force =     0.00000000    0.00000000    0.00035579
     atom    5 type  1   force =     0.00000000    0.00000000   -0.00077350

     Total force =     0.000923     Total SCF correction =     0.000003


     Computing stress (Cartesian axis) and pressure

          total   stress  (Ry/bohr**3)                   (kbar)     P=        7.78
  -0.00001074   0.00000000   0.00000000           -1.58        0.00        0.00
   0.00000000  -0.00001074   0.00000000            0.00       -1.58        0.00
   0.00000000   0.00000000   0.00018017            0.00        0.00       26.50

     Energy error            =      2.7E-06 Ry
     Gradient error          =      7.7E-04 Ry/Bohr

     bfgs converged in  15 scf cycles and  14 bfgs steps
     (criteria: energy <  1.0E-04 Ry, force <  1.0E-03 Ry/Bohr)

     End of BFGS Geometry Optimization

     Final energy             =    -333.1858138631 Ry

     File /home/bond/Work/Lab4/Problem2/PbTiO3_a_3.875_ecut_30_nk_4_displ_-0.035/pwscf.bfgs deleted, as requested
Begin final coordinates

ATOMIC_POSITIONS (angstrom)
Pb               0.0000000000        0.0000000000        0.0000000000    0   0   0
Ti               1.9375000000        1.9375000000        1.8018700000    0   0   0
O                0.0000000000        1.9375000000        1.6264830207
O                1.9375000000        0.0000000000        1.6264830207
O                1.9375000000        1.9375000000       -0.2588248510
End final coordinates


     Message from routine punch:
     Nothing written, as per user request (disk_io='none')

     init_run     :      1.04s CPU      1.22s WALL (       1 calls)
     electrons    :     64.02s CPU     74.40s WALL (      15 calls)
     update_pot   :      0.11s CPU      0.12s WALL (      14 calls)
     forces       :      2.19s CPU      2.61s WALL (      15 calls)
     stress       :     18.43s CPU     19.73s WALL (      15 calls)

     Called by init_run:
     wfcinit      :      0.09s CPU      0.11s WALL (       1 calls)
     potinit      :      0.09s CPU      0.10s WALL (       1 calls)
     hinit0       :      0.66s CPU      0.69s WALL (       1 calls)

     Called by electrons:
     c_bands      :     30.42s CPU     32.69s WALL (     148 calls)
     sum_band     :     18.90s CPU     23.09s WALL (     148 calls)
     v_of_rho     :      0.52s CPU      0.54s WALL (     162 calls)
     newd         :     15.29s CPU     19.74s WALL (     162 calls)
     mix_rho      :      0.29s CPU      0.32s WALL (     148 calls)

     Called by c_bands:
     init_us_2    :      0.79s CPU      0.85s WALL (    1962 calls)
     cegterg      :     28.67s CPU     30.85s WALL (     888 calls)

     Called by *egterg:
     cdiaghg      :      3.54s CPU      3.75s WALL (    4708 calls)
     h_psi        :     20.07s CPU     21.73s WALL (    4804 calls)
     s_psi        :      0.78s CPU      0.84s WALL (    4804 calls)
     g_psi        :      0.12s CPU      0.14s WALL (    3910 calls)

     Called by h_psi:
     h_psi:calbec :      1.40s CPU      1.54s WALL (    4804 calls)
     vloc_psi     :     17.65s CPU     19.07s WALL (    4804 calls)
     add_vuspsi   :      0.86s CPU      0.95s WALL (    4804 calls)

     General routines
     calbec       :      2.25s CPU      2.45s WALL (    7222 calls)
     fft          :      0.96s CPU      1.01s WALL (    1032 calls)
     ffts         :      0.09s CPU      0.10s WALL (     310 calls)
     fftw         :     16.16s CPU     17.52s WALL (  141038 calls)
     interpolate  :      0.19s CPU      0.20s WALL (     162 calls)

     Parallel routines

     PWSCF        :   1m27.82s CPU   1m40.70s WALL


   This run was terminated on:  12:54: 7  21Oct2025            

=------------------------------------------------------------------------------=
   JOB DONE.
=------------------------------------------------------------------------------=
