LAMMPS (22 Jul 2025 - Update 1)
# ---------- 1. Initialize simulation ---------------------
units metal
atom_style atomic
dimension  3
boundary   p p f
read_data /home/bond/Work/Lab1/Surface/LJ/relax/7_8_100/lammps.data
Reading data file ...
  orthogonal box = (0 0 0) to (8.7451919 8.7451919 28.367569)
  1 by 1 by 1 MPI processor grid
  reading atoms ...
  63 atoms
  read_data CPU = 0.001 seconds

# ---------- 2. Specify interatomic potential ---------------------
pair_style lj/cut 4.5
pair_coeff 1 1 0.392 2.620 4.5

# ---------- 3. Run single point calculation  ---------------------
thermo_style custom step pe lx ly lz press pxx pyy pzz
run 0
WARNING: No fixes with time integration, atoms won't move
For more information see https://docs.lammps.org/err0028 (../verlet.cpp:60)
Generated 0 of 0 mixed pair_coeff terms from geometric mixing rule
Neighbor list info ...
  update: every = 1 steps, delay = 0 steps, check = yes
  max neighbors/atom: 2000, page size: 100000
  master list distance cutoff = 6.5
  ghost atom cutoff = 6.5
  binsize = 3.25, bins = 3 3 9
  1 neighbor lists, perpetual/occasional/extra = 1 0 0
  (1) pair lj/cut, perpetual
      attributes: half, newton on
      pair build: half/bin/atomonly/newton
      stencil: half/bin/3d
      bin: standard
Per MPI rank memory allocation (min/avg/max) = 3.055 | 3.055 | 3.055 Mbytes
   Step         PotEng           Lx             Ly             Lz           Press           Pxx            Pyy            Pzz      
         0  -150.17246      8.7451919      8.7451919      28.367569     -0.060672867   -1788.6669     -1788.6669      3577.1517    
Loop time of 2.163e-06 on 1 procs for 0 steps with 63 atoms

138.7% CPU use with 1 MPI tasks x no OpenMP threads

MPI task timing breakdown:
Section |  min time  |  avg time  |  max time  |%varavg| %total
---------------------------------------------------------------
Pair    | 0          | 0          | 0          |   0.0 |  0.00
Neigh   | 0          | 0          | 0          |   0.0 |  0.00
Comm    | 0          | 0          | 0          |   0.0 |  0.00
Output  | 0          | 0          | 0          |   0.0 |  0.00
Modify  | 0          | 0          | 0          |   0.0 |  0.00
Other   |            | 2.163e-06  |            |       |100.00

Nlocal:             63 ave          63 max          63 min
Histogram: 1 0 0 0 0 0 0 0 0 0
Nghost:            340 ave         340 max         340 min
Histogram: 1 0 0 0 0 0 0 0 0 0
Neighs:           1431 ave        1431 max        1431 min
Histogram: 1 0 0 0 0 0 0 0 0 0

Total # of neighbors = 1431
Ave neighs/atom = 22.714286
Neighbor list builds = 0
Dangerous builds = 0
# -- include optimization of the unit cell parameter
fix 1 all box/relax x 0.0 y 0.0 couple xy vmax 0.001

# -- enable optimization of atomic positions (and the cell)
min_style cg
minimize 1e-10 1e-10 1000 10000
Generated 0 of 0 mixed pair_coeff terms from geometric mixing rule
WARNING: Energy due to 3 extra global DOFs will be included in minimizer energies
 (../min.cpp:222)
Per MPI rank memory allocation (min/avg/max) = 4.18 | 4.18 | 4.18 Mbytes
   Step         PotEng           Lx             Ly             Lz           Press           Pxx            Pyy            Pzz      
         0  -150.17246      8.7451919      8.7451919      28.367569     -0.060672867   -1788.6669     -1788.6669      3577.1517    
        19  -150.20698      8.7215078      8.7215078      28.367569      9.2619895      2.2148137      2.2148137      23.356341    
Loop time of 0.0011884 on 1 procs for 19 steps with 63 atoms

100.0% CPU use with 1 MPI tasks x no OpenMP threads

Minimization stats:
  Stopping criterion = energy tolerance
  Energy initial, next-to-last, final = 
     -150.172461565127  -150.206981713039  -150.206981726664
  Force two-norm initial, final = 3.5137063 0.0059199105
  Force max component initial, final = 2.4220322 0.0029909551
  Final line search alpha, max atom move = 0.57215526 0.0017112907
  Iterations, force evaluations = 19 38

MPI task timing breakdown:
Section |  min time  |  avg time  |  max time  |%varavg| %total
---------------------------------------------------------------
Pair    | 0.00075804 | 0.00075804 | 0.00075804 |   0.0 | 63.79
Neigh   | 0          | 0          | 0          |   0.0 |  0.00
Comm    | 6.2693e-05 | 6.2693e-05 | 6.2693e-05 |   0.0 |  5.28
Output  | 0          | 0          | 0          |   0.0 |  0.00
Modify  | 0          | 0          | 0          |   0.0 |  0.00
Other   |            | 0.0003677  |            |       | 30.94

Nlocal:             63 ave          63 max          63 min
Histogram: 1 0 0 0 0 0 0 0 0 0
Nghost:            340 ave         340 max         340 min
Histogram: 1 0 0 0 0 0 0 0 0 0
Neighs:           1431 ave        1431 max        1431 min
Histogram: 1 0 0 0 0 0 0 0 0 0

Total # of neighbors = 1431
Ave neighs/atom = 22.714286
Neighbor list builds = 0
Dangerous builds = 0

# ---- 4. Define and print useful variables -------------
variable natoms equal "count(all)"
variable totenergy equal "pe"
variable length equal "lx"

print "Total energy (eV) = ${totenergy}"
Total energy (eV) = -150.206981726664
print "Number of atoms = ${natoms}"
Number of atoms = 63
print "Lattice constant (Angstoms) = ${length}"
Lattice constant (Angstoms) = 8.7215078463218
Total wall time: 0:00:00
