LAMMPS (22 Jul 2025 - Update 1)
# ---------- 1. Initialize simulation ---------------------
units metal
atom_style atomic
dimension  3
boundary   p p p
read_data /home/bond/Work/Lab1/Vacancy/EAM/relax/24/lammps.data
Reading data file ...
  orthogonal box = (0 0 0) to (97.959718 97.959718 97.959718)
  1 by 1 by 1 MPI processor grid
  reading atoms ...
  55295 atoms
  read_data CPU = 0.159 seconds

# ---------- 2. Specify interatomic potential ---------------------
pair_style eam/alloy
pair_coeff * * /home/bond/Software/LAMMPS/lammps-22Jul2025/potentials/Al_zhou.eam.alloy  Al
Reading eam/alloy potential file /home/bond/Software/LAMMPS/lammps-22Jul2025/potentials/Al_zhou.eam.alloy with DATE: 2007-10-12

# pair_style lj/cut 4.5
# pair_coeff 1 1 0.392 2.620 4.5

# ---------- 3. Run single point calculation  ---------------------
thermo_style custom step pe lx ly lz press pxx pyy pzz
run 0
WARNING: No fixes with time integration, atoms won't move
For more information see https://docs.lammps.org/err0028 (../verlet.cpp:60)
Neighbor list info ...
  update: every = 1 steps, delay = 0 steps, check = yes
  max neighbors/atom: 2000, page size: 100000
  master list distance cutoff = 12.1025
  ghost atom cutoff = 12.1025
  binsize = 6.05125, bins = 17 17 17
  1 neighbor lists, perpetual/occasional/extra = 1 0 0
  (1) pair eam/alloy, perpetual
      attributes: half, newton on
      pair build: half/bin/atomonly/newton
      stencil: half/bin/3d
      bin: standard
Per MPI rank memory allocation (min/avg/max) = 67.65 | 67.65 | 67.65 Mbytes
   Step         PotEng           Lx             Ly             Lz           Press           Pxx            Pyy            Pzz      
         0  -197955.22      97.959718      97.959718      97.959718     -5.1518847     -5.1518867     -5.1518806     -5.1518867    
Loop time of 2.863e-06 on 1 procs for 0 steps with 55295 atoms

209.6% CPU use with 1 MPI tasks x no OpenMP threads

MPI task timing breakdown:
Section |  min time  |  avg time  |  max time  |%varavg| %total
---------------------------------------------------------------
Pair    | 0          | 0          | 0          |   0.0 |  0.00
Neigh   | 0          | 0          | 0          |   0.0 |  0.00
Comm    | 0          | 0          | 0          |   0.0 |  0.00
Output  | 0          | 0          | 0          |   0.0 |  0.00
Modify  | 0          | 0          | 0          |   0.0 |  0.00
Other   |            | 2.863e-06  |            |       |100.00

Nlocal:          55295 ave       55295 max       55295 min
Histogram: 1 0 0 0 0 0 0 0 0 0
Nghost:          47386 ave       47386 max       47386 min
Histogram: 1 0 0 0 0 0 0 0 0 0
Neighs:    1.18329e+07 ave 1.18329e+07 max 1.18329e+07 min
Histogram: 1 0 0 0 0 0 0 0 0 0

Total # of neighbors = 11832916
Ave neighs/atom = 213.99613
Neighbor list builds = 0
Dangerous builds = 0
# -- include optimization of the unit cell parameter
fix 1 all box/relax iso 0.0 vmax 0.001

# -- enable optimization of atomic positions (and the cell)
min_style cg
minimize 1e-10 1e-10 1000 10000
WARNING: Energy due to 1 extra global DOFs will be included in minimizer energies
 (../min.cpp:222)
Per MPI rank memory allocation (min/avg/max) = 75.52 | 75.52 | 75.52 Mbytes
   Step         PotEng           Lx             Ly             Lz           Press           Pxx            Pyy            Pzz      
         0  -197955.22      97.959718      97.959718      97.959718     -5.1518847     -5.1518867     -5.1518806     -5.1518867    
         1  -197955.22      97.959539      97.959539      97.959539      0.14810256     0.14810052     0.14810664     0.14810052   
Loop time of 5.85452 on 1 procs for 1 steps with 55295 atoms

100.0% CPU use with 1 MPI tasks x no OpenMP threads

Minimization stats:
  Stopping criterion = energy tolerance
  Energy initial, next-to-last, final = 
     -197955.218876092  -197955.218876092  -197955.218879816
  Force two-norm initial, final = 9.1019762 0.82600075
  Force max component initial, final = 9.068169 0.26068404
  Final line search alpha, max atom move = 6.8922403e-06 1.7966971e-06
  Iterations, force evaluations = 1 10

MPI task timing breakdown:
Section |  min time  |  avg time  |  max time  |%varavg| %total
---------------------------------------------------------------
Pair    | 5.8134     | 5.8134     | 5.8134     |   0.0 | 99.30
Neigh   | 0          | 0          | 0          |   0.0 |  0.00
Comm    | 0.0053724  | 0.0053724  | 0.0053724  |   0.0 |  0.09
Output  | 0          | 0          | 0          |   0.0 |  0.00
Modify  | 0          | 0          | 0          |   0.0 |  0.00
Other   |            | 0.03571    |            |       |  0.61

Nlocal:          55295 ave       55295 max       55295 min
Histogram: 1 0 0 0 0 0 0 0 0 0
Nghost:          47386 ave       47386 max       47386 min
Histogram: 1 0 0 0 0 0 0 0 0 0
Neighs:    1.18329e+07 ave 1.18329e+07 max 1.18329e+07 min
Histogram: 1 0 0 0 0 0 0 0 0 0

Total # of neighbors = 11832916
Ave neighs/atom = 213.99613
Neighbor list builds = 0
Dangerous builds = 0

# ---- 4. Define and print useful variables -------------
variable natoms equal "count(all)"
variable totenergy equal "pe"
variable length equal "lx"

print "Total energy (eV) = ${totenergy}"
Total energy (eV) = -197955.218879816
print "Number of atoms = ${natoms}"
Number of atoms = 55295
print "Lattice constant (Angstoms) = ${length}"
Lattice constant (Angstoms) = 97.9595385621947
Total wall time: 0:00:07
