
     Program PWSCF v.7.4.1 starts on 20Oct2025 at 17:52:28 

     This program is part of the open-source Quantum ESPRESSO suite
     for quantum simulation of materials; please cite
         "P. Giannozzi et al., J. Phys.:Condens. Matter 21 395502 (2009);
         "P. Giannozzi et al., J. Phys.:Condens. Matter 29 465901 (2017);
         "P. Giannozzi et al., J. Chem. Phys. 152 154105 (2020);
          URL http://www.quantum-espresso.org", 
     in publications or presentations arising from this work. More details at
     http://www.quantum-espresso.org/quote

     Parallel version (MPI), running on     2 processors

     MPI processes distributed on     1 nodes
     323 MiB available memory on the printing compute node when the environment starts

     Waiting for input...
     Reading input from standard input

     Current dimensions of program PWSCF are:
     Max number of different atomic species (ntypx) = 10
     Max number of k-points (npk) =  40000
     Max angular momentum in pseudopotentials (lmaxx) =  4
     file Fe.pbe-nd-rrkjus.UPF: wavefunction(s)  4S renormalized
     Message from routine find_sym:
     Not a group! Trying with lower acceptance parameter...
     Message from routine find_sym:
     Symmetry operations form a group
     Message from routine setup:
     using ibrav=0 with symmetry is DISCOURAGED, use correct ibrav instead

     R & G space division:  proc/nbgrp/npool/nimage =       2
     Subspace diagonalization in iterative solution of the eigenvalue problem:
     a serial algorithm will be used


     Parallelization info
     --------------------
     sticks:   dense  smooth     PW     G-vecs:    dense   smooth      PW
     Min         273     105     36                 7823     1983     380
     Max         274     106     37                 7826     1986     381
     Sum         547     211     73                15649     3969     761

     Using Slab Decomposition



     bravais-lattice index     =            0
     lattice parameter (alat)  =       5.1023  a.u.
     unit-cell volume          =     178.9386 (a.u.)^3
     number of atoms/cell      =            2
     number of atomic types    =            1
     number of electrons       =        16.00
     number of Kohn-Sham states=           12
     kinetic-energy cutoff     =      30.0000  Ry
     charge density cutoff     =     300.0000  Ry
     scf convergence threshold =      1.0E-07
     mixing beta               =       0.5000
     number of iterations used =            8  plain     mixing
     energy convergence thresh.=      1.0E-04
     force convergence thresh. =      1.0E-03
     press convergence thresh. =      5.0E-01
     Exchange-correlation=  SLA  PW   PBE  PBE
                           (   1   4   3   4   0   0   0)
     nstep                     =           50


     celldm(1)=   5.102261  celldm(2)=   0.000000  celldm(3)=   0.000000
     celldm(4)=   0.000000  celldm(5)=   0.000000  celldm(6)=   0.000000

     crystal axes: (cart. coord. in units of alat)
               a(1) = (   1.000000   0.000000   0.000000 )  
               a(2) = (  -0.500000   0.866025   0.000000 )  
               a(3) = (   0.000000   0.000000   1.555556 )  

     reciprocal axes: (cart. coord. in units 2 pi/alat)
               b(1) = (  1.000000  0.577350 -0.000000 )  
               b(2) = (  0.000000  1.154701  0.000000 )  
               b(3) = (  0.000000 -0.000000  0.642857 )  


     PseudoPot. # 1 for Fe read from file:
     /home/bond/Software/QE/qe-7.4.1/pseudo/Fe.pbe-nd-rrkjus.UPF
     MD5 check sum: 398036227a04b607635f6f5e8dfd8242
     Pseudo is Ultrasoft + core correction, Zval =  8.0
     Generated by new atomic code, or converted to UPF format
     Using radial grid of  957 points,  6 beta functions with: 
                l(1) =   0
                l(2) =   0
                l(3) =   1
                l(4) =   1
                l(5) =   2
                l(6) =   2
     Q(r) pseudized with 0 coefficients 


     atomic species   valence    mass     pseudopotential
     Fe                8.00    55.84500     Fe( 1.00)

     Starting magnetic structure 
     atomic species   magnetization
     Fe              0.700

      4 Sym. Ops. (no inversion) found



   Cartesian axes

     site n.     atom                  positions (alat units)
         1        Fe     tau(   1) = (   0.0000000   0.0000000   0.0000000  )
         2        Fe     tau(   2) = (   0.0000000   0.5773519   0.7777778  )

     number of k points=    26  Methfessel-Paxton smearing, width (Ry)=  0.0200
                       cart. coord. in units 2pi/alat
        k(    1) = (   0.0000000   0.0000000   0.0000000), wk =   0.0092593
        k(    2) = (   0.0000000   0.0000000   0.2142857), wk =   0.0185185
        k(    3) = (   0.0000000   0.1924501   0.0000000), wk =   0.0185185
        k(    4) = (   0.0000000   0.1924501   0.2142857), wk =   0.0370370
        k(    5) = (   0.0000000   0.3849002   0.0000000), wk =   0.0185185
        k(    6) = (   0.0000000   0.3849002   0.2142857), wk =   0.0370370
        k(    7) = (   0.0000000  -0.5773503   0.0000000), wk =   0.0092593
        k(    8) = (   0.0000000  -0.5773503   0.2142857), wk =   0.0185185
        k(    9) = (   0.1666667   0.2886751   0.0000000), wk =   0.0370370
        k(   10) = (   0.1666667   0.2886751   0.2142857), wk =   0.0740741
        k(   11) = (   0.1666667   0.4811252   0.0000000), wk =   0.0370370
        k(   12) = (   0.1666667   0.4811252   0.2142857), wk =   0.0740741
        k(   13) = (   0.3333333   0.5773503   0.0000000), wk =   0.0185185
        k(   14) = (   0.3333333   0.5773503   0.2142857), wk =   0.0370370
        k(   15) = (   0.1666667  -0.0962250   0.0000000), wk =   0.0370370
        k(   16) = (   0.1666667  -0.0962250   0.2142857), wk =   0.0740741
        k(   17) = (   0.3333333  -0.1924501   0.0000000), wk =   0.0370370
        k(   18) = (   0.3333333  -0.1924501   0.2142857), wk =   0.0740741
        k(   19) = (  -0.5000000   0.2886751   0.0000000), wk =   0.0185185
        k(   20) = (  -0.5000000   0.2886751   0.2142857), wk =   0.0370370
        k(   21) = (   0.3333333   0.0000000   0.0000000), wk =   0.0185185
        k(   22) = (   0.3333333   0.0000000  -0.2142857), wk =   0.0370370
        k(   23) = (   0.3333333  -0.3849002   0.0000000), wk =   0.0370370
        k(   24) = (   0.5000000  -0.0962250   0.0000000), wk =   0.0370370
        k(   25) = (   0.3333333  -0.3849002   0.2142857), wk =   0.0740741
        k(   26) = (   0.5000000  -0.0962250  -0.2142857), wk =   0.0740741

     Dense  grid:    15649 G-vectors     FFT dimensions: (  30,  30,  45)

     Smooth grid:     3969 G-vectors     FFT dimensions: (  18,  18,  27)

     Estimated max dynamical RAM per process >      37.31 MB

     Estimated total dynamical RAM >      74.63 MB

     Check: negative core charge=   -0.000008
     Generating pointlists ...
     new r_m :   0.3996 (alat units)  2.0387 (a.u.) for type    1

     Initial potential from superposition of free atoms

     starting charge      15.9987, renormalised to      16.0000
     Starting wfcs are   12 randomized atomic wfcs

     total cpu time spent up to now is        0.7 secs

     Self-consistent Calculation

     iteration #  1     ecut=    30.00 Ry     beta= 0.50
     Davidson diagonalization with overlap
     ethr =  1.00E-02,  avg # of iterations =  4.0

     total cpu time spent up to now is        1.2 secs

     total energy              =    -111.34511201 Ry
     estimated scf accuracy    <       0.56856244 Ry

     total magnetization       =     6.80 Bohr mag/cell
     absolute magnetization    =     6.80 Bohr mag/cell

     iteration #  2     ecut=    30.00 Ry     beta= 0.50
     Davidson diagonalization with overlap
     ethr =  3.55E-03,  avg # of iterations =  2.1

     total cpu time spent up to now is        1.6 secs

     total energy              =    -111.52234412 Ry
     estimated scf accuracy    <       0.05185550 Ry

     total magnetization       =     6.33 Bohr mag/cell
     absolute magnetization    =     6.33 Bohr mag/cell

     iteration #  3     ecut=    30.00 Ry     beta= 0.50
     Davidson diagonalization with overlap
     ethr =  3.24E-04,  avg # of iterations =  1.8

     total cpu time spent up to now is        2.0 secs

     total energy              =    -111.55414946 Ry
     estimated scf accuracy    <       0.01188655 Ry

     total magnetization       =     6.01 Bohr mag/cell
     absolute magnetization    =     6.07 Bohr mag/cell

     iteration #  4     ecut=    30.00 Ry     beta= 0.50
     Davidson diagonalization with overlap
     ethr =  7.43E-05,  avg # of iterations =  3.2

     total cpu time spent up to now is        2.4 secs

     total energy              =    -111.56914212 Ry
     estimated scf accuracy    <       0.02058481 Ry

     total magnetization       =     5.33 Bohr mag/cell
     absolute magnetization    =     5.66 Bohr mag/cell

     iteration #  5     ecut=    30.00 Ry     beta= 0.50
     Davidson diagonalization with overlap
     ethr =  7.43E-05,  avg # of iterations =  1.1

     total cpu time spent up to now is        2.7 secs

     total energy              =    -111.56992222 Ry
     estimated scf accuracy    <       0.00192539 Ry

     total magnetization       =     5.33 Bohr mag/cell
     absolute magnetization    =     5.66 Bohr mag/cell

     iteration #  6     ecut=    30.00 Ry     beta= 0.50
     Davidson diagonalization with overlap
     ethr =  1.20E-05,  avg # of iterations =  1.7

     total cpu time spent up to now is        3.1 secs

     total energy              =    -111.57000533 Ry
     estimated scf accuracy    <       0.00088684 Ry

     total magnetization       =     5.32 Bohr mag/cell
     absolute magnetization    =     5.66 Bohr mag/cell

     iteration #  7     ecut=    30.00 Ry     beta= 0.50
     Davidson diagonalization with overlap
     ethr =  5.54E-06,  avg # of iterations =  1.2

     total cpu time spent up to now is        3.4 secs

     total energy              =    -111.57000736 Ry
     estimated scf accuracy    <       0.00024430 Ry

     total magnetization       =     5.32 Bohr mag/cell
     absolute magnetization    =     5.66 Bohr mag/cell

     iteration #  8     ecut=    30.00 Ry     beta= 0.50
     Davidson diagonalization with overlap
     ethr =  1.53E-06,  avg # of iterations =  2.9

     total cpu time spent up to now is        3.8 secs

     total energy              =    -111.57009703 Ry
     estimated scf accuracy    <       0.00002079 Ry

     total magnetization       =     5.31 Bohr mag/cell
     absolute magnetization    =     5.67 Bohr mag/cell

     iteration #  9     ecut=    30.00 Ry     beta= 0.50
     Davidson diagonalization with overlap
     ethr =  1.30E-07,  avg # of iterations =  4.4

     total cpu time spent up to now is        4.4 secs

     total energy              =    -111.57011135 Ry
     estimated scf accuracy    <       0.00000161 Ry

     total magnetization       =     5.32 Bohr mag/cell
     absolute magnetization    =     5.67 Bohr mag/cell

     iteration # 10     ecut=    30.00 Ry     beta= 0.50
     Davidson diagonalization with overlap
     ethr =  1.01E-08,  avg # of iterations =  6.8

     total cpu time spent up to now is        5.1 secs

     total energy              =    -111.57011430 Ry
     estimated scf accuracy    <       0.00000028 Ry

     total magnetization       =     5.31 Bohr mag/cell
     absolute magnetization    =     5.67 Bohr mag/cell

     iteration # 11     ecut=    30.00 Ry     beta= 0.50
     Davidson diagonalization with overlap
     ethr =  1.75E-09,  avg # of iterations =  4.0

     total cpu time spent up to now is        5.5 secs

     total energy              =    -111.57011449 Ry
     estimated scf accuracy    <       0.00000016 Ry

     total magnetization       =     5.32 Bohr mag/cell
     absolute magnetization    =     5.67 Bohr mag/cell

     iteration # 12     ecut=    30.00 Ry     beta= 0.50
     Davidson diagonalization with overlap
     ethr =  9.86E-10,  avg # of iterations =  2.1

     Magnetic moment per site  (integrated on atomic sphere of radius R)
     atom   1 (R=0.400)  charge=  6.6299  magn=  2.7368
     atom   2 (R=0.400)  charge=  6.6293  magn=  2.7368

     total cpu time spent up to now is        5.9 secs

     End of self-consistent calculation

 ------ SPIN UP ------------


          k = 0.0000 0.0000 0.0000 (   523 PWs)   bands (ev):

     3.4720   6.8313   8.7690   8.7690   9.0638   9.0638   9.1393   9.2958
     9.2958  10.3575  10.3576  11.7864

          k = 0.0000 0.0000 0.2143 (   512 PWs)   bands (ev):

     4.4705   6.4651   8.6331   8.6331   8.8258   8.8258   8.9221   9.3796
     9.7819   9.7819  10.2696  10.2696

          k = 0.0000 0.1925 0.0000 (   504 PWs)   bands (ev):

     4.2856   7.2304   8.4016   8.7672   8.9401   9.0897   9.1192   9.3640
     9.4518   9.4777  10.4498  13.8535

          k = 0.0000 0.1925 0.2143 (   505 PWs)   bands (ev):

     5.2079   7.0295   8.2395   8.4356   8.7817   8.8768   9.1086   9.1090
     9.7371   9.9717  10.2876  11.2622

          k = 0.0000 0.3849 0.0000 (   488 PWs)   bands (ev):

     6.2031   7.3347   7.7326   8.4080   8.7531   9.1168   9.1555   9.8834
    10.0289  10.3227  10.5612  17.1294

          k = 0.0000 0.3849 0.2143 (   499 PWs)   bands (ev):

     6.5457   7.2784   7.8640   8.2695   9.0605   9.0978   9.7174   9.7228
    10.0178  10.3298  10.3626  12.8477

          k = 0.0000-0.5774 0.0000 (   492 PWs)   bands (ev):

     7.0436   7.0598   7.3597   8.6057   9.0310   9.0467   9.4004  10.2763
    10.4341  10.5974  12.2757  13.8776

          k = 0.0000-0.5774 0.2143 (   494 PWs)   bands (ev):

     6.7460   7.0891   7.8834   8.0700   9.0210   9.6333   9.9668  10.3620
    10.4058  10.6298  12.0771  13.4267

          k = 0.1667 0.2887 0.0000 (   497 PWs)   bands (ev):

     5.7238   7.6549   7.9731   8.0077   8.7349   8.9296   9.2713   9.6635
     9.8144  10.1808  10.5006  16.2230

          k = 0.1667 0.2887 0.2143 (   500 PWs)   bands (ev):

     6.3689   7.5505   7.9735   8.1432   8.7226   8.8720   9.0554   9.5784
    10.1260  10.1654  10.5188  12.4689

          k = 0.1667 0.4811 0.0000 (   492 PWs)   bands (ev):

     7.2368   7.4271   7.4630   8.2773   8.5795   8.9950   9.2946  10.1562
    10.4213  10.5248  11.8802  16.0465

          k = 0.1667 0.4811 0.2143 (   492 PWs)   bands (ev):

     7.0809   7.4592   7.8587   8.3241   8.5866   9.1759   9.4363   9.8146
    10.3246  10.6027  12.3207  14.5158

          k = 0.3333 0.5774 0.0000 (   492 PWs)   bands (ev):

     7.3996   7.7445   7.7446   7.9519   8.6817   8.6817   9.4235  10.3614
    10.3614  10.4767  14.9430  15.4847

          k = 0.3333 0.5774 0.2143 (   495 PWs)   bands (ev):

     7.7149   7.8267   7.8268   8.0140   8.6088   8.6088   9.3458   9.7761
    10.4491  10.4491  15.8915  15.8915

          k = 0.1667-0.0962 0.0000 (   504 PWs)   bands (ev):

     4.2856   7.2304   8.4016   8.7672   8.9401   9.0897   9.1192   9.3640
     9.4519   9.4777  10.4498  13.8535

          k = 0.1667-0.0962 0.2143 (   505 PWs)   bands (ev):

     5.2079   7.0295   8.2395   8.4356   8.7817   8.8768   9.1086   9.1090
     9.7371   9.9717  10.2876  11.2622

          k = 0.3333-0.1925 0.0000 (   488 PWs)   bands (ev):

     6.2031   7.3347   7.7327   8.4080   8.7531   9.1168   9.1555   9.8834
    10.0289  10.3227  10.5612  17.1294

          k = 0.3333-0.1925 0.2143 (   499 PWs)   bands (ev):

     6.5457   7.2784   7.8640   8.2695   9.0605   9.0978   9.7174   9.7229
    10.0178  10.3298  10.3626  12.8477

          k =-0.5000 0.2887 0.0000 (   492 PWs)   bands (ev):

     7.0436   7.0598   7.3597   8.6057   9.0310   9.0467   9.4004  10.2763
    10.4341  10.5974  12.2757  13.8776

          k =-0.5000 0.2887 0.2143 (   494 PWs)   bands (ev):

     6.7460   7.0891   7.8834   8.0700   9.0209   9.6333   9.9668  10.3620
    10.4058  10.6298  12.0771  13.4267

          k = 0.3333 0.0000 0.0000 (   497 PWs)   bands (ev):

     5.7238   7.6549   7.9731   8.0077   8.7349   8.9296   9.2713   9.6635
     9.8144  10.1808  10.5005  16.2230

          k = 0.3333 0.0000-0.2143 (   500 PWs)   bands (ev):

     6.3689   7.5505   7.9735   8.1432   8.7226   8.8719   9.0554   9.5784
    10.1260  10.1654  10.5188  12.4689

          k = 0.3333-0.3849 0.0000 (   492 PWs)   bands (ev):

     7.2368   7.4271   7.4630   8.2773   8.5795   8.9951   9.2946  10.1562
    10.4213  10.5248  11.8802  16.0465

          k = 0.5000-0.0962 0.0000 (   492 PWs)   bands (ev):

     7.2368   7.4271   7.4630   8.2773   8.5795   8.9950   9.2946  10.1562
    10.4213  10.5248  11.8803  16.0465

          k = 0.3333-0.3849 0.2143 (   492 PWs)   bands (ev):

     7.0809   7.4592   7.8587   8.3241   8.5866   9.1759   9.4363   9.8146
    10.3246  10.6027  12.3207  14.5158

          k = 0.5000-0.0962-0.2143 (   492 PWs)   bands (ev):

     7.0809   7.4592   7.8587   8.3241   8.5866   9.1759   9.4363   9.8146
    10.3246  10.6027  12.3207  14.5158

 ------ SPIN DOWN ----------


          k = 0.0000 0.0000 0.0000 (   523 PWs)   bands (ev):

     3.5727   8.3925  11.5930  11.5930  11.7747  11.8224  11.9894  11.9894
    12.3298  12.3298  13.5942  13.5942

          k = 0.0000 0.0000 0.2143 (   512 PWs)   bands (ev):

     4.5889   7.0830  11.0113  11.4459  11.4459  11.4547  11.6872  11.6872
    12.9127  12.9127  13.5068  13.5068

          k = 0.0000 0.1925 0.0000 (   504 PWs)   bands (ev):

     4.3946   8.9156  10.7526  10.9885  11.7494  12.0163  12.0569  12.1242
    12.2744  12.3499  13.7192  15.3697

          k = 0.0000 0.1925 0.2143 (   505 PWs)   bands (ev):

     5.3604   7.7246  10.4902  11.0783  11.3758  11.6997  11.7430  12.0146
    12.8428  12.9870  13.5277  14.0077

          k = 0.0000 0.3849 0.0000 (   488 PWs)   bands (ev):

     6.5602   9.4495   9.8176  10.3304  11.6214  11.7095  11.7931  12.9847
    13.1405  13.1601  13.8635  18.3423

          k = 0.0000 0.3849 0.2143 (   499 PWs)   bands (ev):

     7.2608   8.7861  10.0446  10.5397  11.3553  11.7618  11.9721  12.7542
    13.1679  13.3363  13.5693  14.8563

          k = 0.0000-0.5774 0.0000 (   492 PWs)   bands (ev):

     8.4446   9.0667   9.5086  10.0302  11.4332  11.6312  12.0110  13.4995
    13.6882  13.9087  14.5229  15.7342

          k = 0.0000-0.5774 0.2143 (   494 PWs)   bands (ev):

     8.4659   8.8766  10.0393  10.2062  11.7908  11.9200  12.4743  13.0854
    13.5957  13.6534  13.7914  14.9810

          k = 0.1667 0.2887 0.0000 (   497 PWs)   bands (ev):

     5.9102   9.5601  10.0597  10.3356  11.5299  11.6221  12.0211  12.5530
    12.8157  13.1531  13.7831  17.5431

          k = 0.1667 0.2887 0.2143 (   500 PWs)   bands (ev):

     6.7374   8.6833  10.1484  10.5594  11.2437  11.4974  11.9474  12.4868
    13.1907  13.2046  13.6252  14.7147

          k = 0.1667 0.4811 0.0000 (   492 PWs)   bands (ev):

     8.2003   9.5243   9.6551   9.9093  11.2917  11.6212  11.9864  13.1887
    13.5576  13.8129  14.3669  17.3911

          k = 0.1667 0.4811 0.2143 (   492 PWs)   bands (ev):

     8.5612   9.2423  10.0117  10.3765  11.1281  11.3412  12.1326  12.8789
    13.3766  13.7618  14.5432  15.8705

          k = 0.3333 0.5774 0.0000 (   492 PWs)   bands (ev):

     9.4604   9.4604   9.6558   9.6990  11.2717  11.2717  12.2659  13.4105
    13.4105  13.7497  16.4075  16.8923

          k = 0.3333 0.5774 0.2143 (   495 PWs)   bands (ev):

     9.8110   9.8492   9.8595   9.8595  10.8502  10.8502  12.2418  12.8664
    13.4831  13.4831  17.1622  17.1622

          k = 0.1667-0.0962 0.0000 (   504 PWs)   bands (ev):

     4.3946   8.9156  10.7526  10.9885  11.7494  12.0163  12.0569  12.1242
    12.2744  12.3499  13.7192  15.3697

          k = 0.1667-0.0962 0.2143 (   505 PWs)   bands (ev):

     5.3604   7.7246  10.4902  11.0783  11.3758  11.6997  11.7430  12.0146
    12.8428  12.9870  13.5277  14.0077

          k = 0.3333-0.1925 0.0000 (   488 PWs)   bands (ev):

     6.5602   9.4495   9.8176  10.3304  11.6214  11.7095  11.7931  12.9847
    13.1405  13.1601  13.8635  18.3423

          k = 0.3333-0.1925 0.2143 (   499 PWs)   bands (ev):

     7.2608   8.7861  10.0446  10.5398  11.3553  11.7618  11.9721  12.7542
    13.1679  13.3363  13.5693  14.8563

          k =-0.5000 0.2887 0.0000 (   492 PWs)   bands (ev):

     8.4446   9.0667   9.5086  10.0302  11.4332  11.6312  12.0110  13.4995
    13.6882  13.9087  14.5230  15.7342

          k =-0.5000 0.2887 0.2143 (   494 PWs)   bands (ev):

     8.4659   8.8766  10.0393  10.2062  11.7908  11.9200  12.4743  13.0854
    13.5956  13.6534  13.7914  14.9810

          k = 0.3333 0.0000 0.0000 (   497 PWs)   bands (ev):

     5.9102   9.5601  10.0597  10.3356  11.5299  11.6221  12.0211  12.5530
    12.8157  13.1531  13.7831  17.5431

          k = 0.3333 0.0000-0.2143 (   500 PWs)   bands (ev):

     6.7374   8.6833  10.1484  10.5594  11.2437  11.4974  11.9474  12.4868
    13.1907  13.2046  13.6252  14.7147

          k = 0.3333-0.3849 0.0000 (   492 PWs)   bands (ev):

     8.2003   9.5243   9.6552   9.9093  11.2917  11.6212  11.9864  13.1887
    13.5576  13.8129  14.3669  17.3911

          k = 0.5000-0.0962 0.0000 (   492 PWs)   bands (ev):

     8.2003   9.5243   9.6552   9.9093  11.2917  11.6212  11.9864  13.1887
    13.5576  13.8129  14.3669  17.3911

          k = 0.3333-0.3849 0.2143 (   492 PWs)   bands (ev):

     8.5612   9.2423  10.0117  10.3765  11.1281  11.3412  12.1326  12.8789
    13.3766  13.7618  14.5432  15.8705

          k = 0.5000-0.0962-0.2143 (   492 PWs)   bands (ev):

     8.5612   9.2423  10.0117  10.3765  11.1281  11.3412  12.1326  12.8789
    13.3766  13.7618  14.5432  15.8705

     the Fermi energy is    11.5955 ev

!    total energy              =    -111.57011469 Ry
     estimated scf accuracy    <       0.00000006 Ry
     smearing contrib. (-TS)   =       0.00040786 Ry
     internal energy E=F+TS    =    -111.57052255 Ry

     The total energy is F=E-TS. E is the sum of the following terms:
     one-electron contribution =       9.07372925 Ry
     hartree contribution      =      14.80923726 Ry
     xc contribution           =     -52.82512502 Ry
     ewald contribution        =     -82.62836405 Ry

     total magnetization       =     5.31 Bohr mag/cell
     absolute magnetization    =     5.67 Bohr mag/cell

     convergence has been achieved in  12 iterations

     Forces acting on atoms (cartesian axes, Ry/au):

     atom    1 type  1   force =     0.00000000    0.00000223    0.00000000
     atom    2 type  1   force =     0.00000000   -0.00000223    0.00000000

     Total force =     0.000003     Total SCF correction =     0.000006
     SCF correction compared to forces is large: reduce conv_thr to get better values


     Computing stress (Cartesian axis) and pressure

          total   stress  (Ry/bohr**3)                   (kbar)     P=     -123.77
  -0.00117670   0.00000000   0.00000000         -173.10        0.00        0.00
   0.00000000  -0.00117669   0.00000000            0.00     -173.10        0.00
   0.00000000   0.00000000  -0.00017065            0.00        0.00      -25.10


     BFGS Geometry Optimization
     Energy error            =      1.3E-02 Ry
     Gradient error          =      2.2E-06 Ry/Bohr
     Cell gradient error     =      1.7E+02 kbar

     number of scf cycles    =   1
     number of bfgs steps    =   0

     enthalpy           new  =    -111.5701146919 Ry

     new trust radius        =       0.0787023291 bohr
     new conv_thr            =       0.0000001000 Ry

     new unit-cell volume =    167.84652 a.u.^3 (    24.87229 Ang^3 )
     density =      7.45672 g/cm^3

CELL_PARAMETERS (angstrom)
   2.620572786   0.000000000   0.000000000
  -1.310286393   2.269483203   0.000000000
   0.000000000   0.000000000   4.182082073

ATOMIC_POSITIONS (angstrom)
Fe               0.0000000000        0.0000011466        0.0000000000
Fe               0.0000000000        1.5129918031        2.0910410364


     Message from routine punch:
     Nothing written, as per user request (disk_io='none')
     NEW-OLD atomic charge density approx. for the potential
     New effective cutoffs (rho, wfc):  318.30   31.82

     Check: negative core charge=   -0.000004
     Generating pointlists ...
     new r_m :   0.3943 (alat units)  2.0119 (a.u.) for type    1

     total cpu time spent up to now is        6.4 secs

     Self-consistent Calculation

     iteration #  1     ecut=    30.00 Ry     beta= 0.50
     Davidson diagonalization with overlap
     ethr =  1.00E-06,  avg # of iterations =  6.8

     total cpu time spent up to now is        7.1 secs

     total energy              =    -111.57910077 Ry
     estimated scf accuracy    <       0.00037839 Ry

     total magnetization       =     5.31 Bohr mag/cell
     absolute magnetization    =     5.63 Bohr mag/cell

     iteration #  2     ecut=    30.00 Ry     beta= 0.50
     Davidson diagonalization with overlap
     ethr =  2.36E-06,  avg # of iterations =  1.0

     total cpu time spent up to now is        7.5 secs

     total energy              =    -111.57919635 Ry
     estimated scf accuracy    <       0.00011252 Ry

     total magnetization       =     5.31 Bohr mag/cell
     absolute magnetization    =     5.62 Bohr mag/cell

     iteration #  3     ecut=    30.00 Ry     beta= 0.50
     Davidson diagonalization with overlap
     ethr =  7.03E-07,  avg # of iterations =  2.2

     total cpu time spent up to now is        7.8 secs

     total energy              =    -111.57918950 Ry
     estimated scf accuracy    <       0.00044225 Ry

     total magnetization       =     5.31 Bohr mag/cell
     absolute magnetization    =     5.61 Bohr mag/cell

     iteration #  4     ecut=    30.00 Ry     beta= 0.50
     Davidson diagonalization with overlap
     ethr =  7.03E-07,  avg # of iterations =  1.1

     total cpu time spent up to now is        8.2 secs

     total energy              =    -111.57923108 Ry
     estimated scf accuracy    <       0.00009742 Ry

     total magnetization       =     5.31 Bohr mag/cell
     absolute magnetization    =     5.61 Bohr mag/cell

     iteration #  5     ecut=    30.00 Ry     beta= 0.50
     Davidson diagonalization with overlap
     ethr =  6.09E-07,  avg # of iterations =  1.0

     total cpu time spent up to now is        8.5 secs

     total energy              =    -111.57924111 Ry
     estimated scf accuracy    <       0.00000263 Ry

     total magnetization       =     5.31 Bohr mag/cell
     absolute magnetization    =     5.60 Bohr mag/cell

     iteration #  6     ecut=    30.00 Ry     beta= 0.50
     Davidson diagonalization with overlap
     ethr =  1.64E-08,  avg # of iterations =  3.9

     total cpu time spent up to now is        8.9 secs

     total energy              =    -111.57924408 Ry
     estimated scf accuracy    <       0.00000037 Ry

     total magnetization       =     5.31 Bohr mag/cell
     absolute magnetization    =     5.60 Bohr mag/cell

     iteration #  7     ecut=    30.00 Ry     beta= 0.50
     Davidson diagonalization with overlap
     ethr =  2.32E-09,  avg # of iterations =  4.6

     Magnetic moment per site  (integrated on atomic sphere of radius R)
     atom   1 (R=0.394)  charge=  6.6320  magn=  2.7176
     atom   2 (R=0.394)  charge=  6.6313  magn=  2.7173

     total cpu time spent up to now is        9.4 secs

     End of self-consistent calculation

 ------ SPIN UP ------------


          k = 0.0000 0.0000 0.0000 (   523 PWs)   bands (ev):

     4.1081   7.5378   9.7174   9.7174   9.9520  10.0196  10.0196  10.3127
    10.3127  11.3892  11.3892  12.4792

          k = 0.0000 0.0000 0.2152 (   512 PWs)   bands (ev):

     5.1188   7.1385   9.5929   9.5929   9.7317   9.7856   9.7856  10.1769
    10.7936  10.7936  11.2923  11.2923

          k = 0.0000 0.1983 0.0000 (   504 PWs)   bands (ev):

     4.9758   7.9944   9.2954   9.6285   9.8513  10.0852  10.1150  10.3588
    10.3620  10.3668  11.4822  14.8141

          k = 0.0000 0.1983 0.2152 (   505 PWs)   bands (ev):

     5.9038   7.7529   9.0740   9.3536   9.6176   9.8732   9.9933  10.1078
    10.7457  10.9634  11.3112  12.3015

          k = 0.0000 0.3966 0.0000 (   488 PWs)   bands (ev):

     6.9807   8.1124   8.4684   9.3173   9.7149   9.9950  10.0215  10.9900
    11.1343  11.3609  11.5873  18.2717

          k = 0.0000 0.3966 0.2152 (   499 PWs)   bands (ev):

     7.2818   8.0098   8.6553   9.0853  10.0296  10.0477  10.6979  10.7714
    11.1159  11.3829  11.3919  13.9350

          k = 0.0000-0.5948 0.0000 (   492 PWs)   bands (ev):

     7.7810   7.8384   8.0647   9.5527   9.8789   9.9859  10.2988  11.4473
    11.5987  11.6187  13.4926  15.2732

          k = 0.0000-0.5948 0.2152 (   494 PWs)   bands (ev):

     7.4508   7.8161   8.6658   8.8371   9.9889  10.5985  10.9866  11.5153
    11.5700  11.7164  13.1265  14.6628

          k = 0.1717 0.2974 0.0000 (   497 PWs)   bands (ev):

     6.4979   8.4882   8.7784   8.8214   9.6449   9.8196  10.2066  10.5970
    10.8965  11.2757  11.5132  17.3248

          k = 0.1717 0.2974 0.2152 (   500 PWs)   bands (ev):

     7.1235   8.2929   8.8144   9.0077   9.5791   9.7410  10.0390  10.6041
    11.1845  11.2069  11.5797  13.5555

          k = 0.1717 0.4957 0.0000 (   492 PWs)   bands (ev):

     8.0548   8.2003   8.2235   9.1792   9.4698   9.8622  10.2095  11.1932
    11.5179  11.5513  13.1517  17.5369

          k = 0.1717 0.4957 0.2152 (   492 PWs)   bands (ev):

     7.8227   8.2209   8.6664   9.1545   9.4710  10.1228  10.4183  10.8148
    11.3782  11.7217  13.5543  15.7332

          k = 0.3434 0.5948 0.0000 (   492 PWs)   bands (ev):

     8.1641   8.6078   8.6078   8.8025   9.5318   9.5321  10.3717  11.4128
    11.4129  11.4419  16.3463  17.0282

          k = 0.3434 0.5948 0.2152 (   495 PWs)   bands (ev):

     8.4982   8.6408   8.6409   8.8436   9.4925   9.4927  10.3013  10.7413
    11.5249  11.5251  17.3608  17.3609

          k = 0.1717-0.0991 0.0000 (   504 PWs)   bands (ev):

     4.9758   7.9944   9.2954   9.6285   9.8513  10.0852  10.1150  10.3588
    10.3620  10.3668  11.4822  14.8141

          k = 0.1717-0.0991 0.2152 (   505 PWs)   bands (ev):

     5.9038   7.7529   9.0740   9.3536   9.6176   9.8732   9.9933  10.1078
    10.7457  10.9634  11.3112  12.3015

          k = 0.3434-0.1983 0.0000 (   488 PWs)   bands (ev):

     6.9807   8.1124   8.4684   9.3173   9.7149   9.9950  10.0215  10.9900
    11.1343  11.3609  11.5873  18.2717

          k = 0.3434-0.1983 0.2152 (   499 PWs)   bands (ev):

     7.2818   8.0098   8.6553   9.0853  10.0296  10.0477  10.6979  10.7714
    11.1159  11.3829  11.3919  13.9350

          k =-0.5152 0.2974 0.0000 (   492 PWs)   bands (ev):

     7.7810   7.8384   8.0647   9.5527   9.8789   9.9859  10.2988  11.4473
    11.5987  11.6187  13.4926  15.2732

          k =-0.5152 0.2974 0.2152 (   494 PWs)   bands (ev):

     7.4508   7.8161   8.6658   8.8371   9.9889  10.5985  10.9865  11.5153
    11.5700  11.7164  13.1265  14.6627

          k = 0.3434 0.0000 0.0000 (   497 PWs)   bands (ev):

     6.4979   8.4882   8.7784   8.8214   9.6449   9.8196  10.2066  10.5970
    10.8965  11.2757  11.5132  17.3248

          k = 0.3434 0.0000-0.2152 (   500 PWs)   bands (ev):

     7.1235   8.2929   8.8144   9.0077   9.5791   9.7410  10.0390  10.6041
    11.1845  11.2069  11.5797  13.5555

          k = 0.3434-0.3966 0.0000 (   492 PWs)   bands (ev):

     8.0548   8.2003   8.2235   9.1792   9.4698   9.8622  10.2095  11.1932
    11.5179  11.5513  13.1517  17.5369

          k = 0.5152-0.0991 0.0000 (   492 PWs)   bands (ev):

     8.0548   8.2003   8.2235   9.1792   9.4698   9.8622  10.2095  11.1932
    11.5179  11.5513  13.1517  17.5369

          k = 0.3434-0.3966 0.2152 (   492 PWs)   bands (ev):

     7.8227   8.2209   8.6664   9.1545   9.4710  10.1228  10.4183  10.8148
    11.3782  11.7217  13.5543  15.7332

          k = 0.5152-0.0991-0.2152 (   492 PWs)   bands (ev):

     7.8227   8.2209   8.6664   9.1545   9.4710  10.1228  10.4183  10.8148
    11.3782  11.7217  13.5543  15.7332

 ------ SPIN DOWN ----------


          k = 0.0000 0.0000 0.0000 (   523 PWs)   bands (ev):

     4.2599   9.0544  12.5137  12.5137  12.5289  12.5588  12.9110  12.9110
    13.4042  13.4042  14.6750  14.6750

          k = 0.0000 0.0000 0.2152 (   512 PWs)   bands (ev):

     5.2883   7.7803  11.7644  12.1886  12.3935  12.3935  12.6280  12.6280
    13.9618  13.9618  14.5662  14.5662

          k = 0.0000 0.1983 0.0000 (   504 PWs)   bands (ev):

     5.1374   9.6355  11.5099  11.8444  12.6146  12.9842  13.0922  13.1073
    13.1306  13.3202  14.8001  16.4932

          k = 0.0000 0.1983 0.2152 (   505 PWs)   bands (ev):

     6.1096   8.4664  11.2643  11.9783  12.1472  12.5710  12.7431  13.0011
    13.8708  13.9977  14.5838  15.0960

          k = 0.0000 0.3966 0.0000 (   488 PWs)   bands (ev):

     7.4119  10.1956  10.5402  11.2158  12.5210  12.6349  12.6910  14.0640
    14.0997  14.2384  14.9350  19.5924

          k = 0.0000 0.3966 0.2152 (   499 PWs)   bands (ev):

     8.0784   9.5309  10.8170  11.3892  12.1941  12.6673  13.0076  13.8244
    14.2437  14.3413  14.6363  15.9875

          k = 0.0000-0.5948 0.0000 (   492 PWs)   bands (ev):

     9.2753   9.7886  10.2194  11.0128  12.4307  12.4774  12.8343  14.6481
    14.8266  14.9737  15.6983  17.0657

          k = 0.0000-0.5948 0.2152 (   494 PWs)   bands (ev):

     9.1958   9.6176  10.8261  11.0012  12.6900  12.9396  13.5268  14.1511
    14.7304  14.7924  14.8628  16.1966

          k = 0.1717 0.2974 0.0000 (   497 PWs)   bands (ev):

     6.7419  10.3584  10.7973  11.1543  12.4602  12.4782  13.0193  13.4095
    13.8688  14.2189  14.8383  18.7666

          k = 0.1717 0.2974 0.2152 (   500 PWs)   bands (ev):

     7.5565   9.4620  10.9420  11.3985  12.0666  12.3314  12.9565  13.5240
    14.2135  14.2554  14.6861  15.8471

          k = 0.1717 0.4957 0.0000 (   492 PWs)   bands (ev):

     9.0913  10.2897  10.3932  10.8000  12.2065  12.5281  12.8299  14.1653
    14.6541  14.8434  15.6082  18.8887

          k = 0.1717 0.4957 0.2152 (   492 PWs)   bands (ev):

     9.3754  10.0004  10.8034  11.2383  11.9759  12.2530  13.0961  13.9043
    14.3991  14.8621  15.7767  17.1505

          k = 0.3434 0.5948 0.0000 (   492 PWs)   bands (ev):

    10.3312  10.3312  10.4767  10.4992  12.1440  12.1443  13.1472  14.4046
    14.4048  14.7465  17.8501  18.4527

          k = 0.3434 0.5948 0.2152 (   495 PWs)   bands (ev):

    10.6382  10.6439  10.6977  10.6978  11.7116  11.7119  13.1538  13.8466
    14.5350  14.5352  18.6665  18.6667

          k = 0.1717-0.0991 0.0000 (   504 PWs)   bands (ev):

     5.1374   9.6355  11.5099  11.8444  12.6146  12.9842  13.0922  13.1073
    13.1306  13.3202  14.8001  16.4932

          k = 0.1717-0.0991 0.2152 (   505 PWs)   bands (ev):

     6.1096   8.4664  11.2643  11.9783  12.1472  12.5710  12.7431  13.0011
    13.8708  13.9977  14.5838  15.0961

          k = 0.3434-0.1983 0.0000 (   488 PWs)   bands (ev):

     7.4119  10.1956  10.5402  11.2158  12.5210  12.6349  12.6910  14.0640
    14.0997  14.2384  14.9350  19.5924

          k = 0.3434-0.1983 0.2152 (   499 PWs)   bands (ev):

     8.0784   9.5309  10.8170  11.3892  12.1941  12.6673  13.0076  13.8244
    14.2437  14.3413  14.6363  15.9875

          k =-0.5152 0.2974 0.0000 (   492 PWs)   bands (ev):

     9.2753   9.7886  10.2194  11.0128  12.4307  12.4774  12.8343  14.6481
    14.8266  14.9737  15.6983  17.0657

          k =-0.5152 0.2974 0.2152 (   494 PWs)   bands (ev):

     9.1958   9.6176  10.8261  11.0012  12.6900  12.9396  13.5268  14.1511
    14.7304  14.7924  14.8628  16.1966

          k = 0.3434 0.0000 0.0000 (   497 PWs)   bands (ev):

     6.7419  10.3584  10.7973  11.1543  12.4602  12.4782  13.0194  13.4095
    13.8688  14.2189  14.8382  18.7666

          k = 0.3434 0.0000-0.2152 (   500 PWs)   bands (ev):

     7.5565   9.4620  10.9420  11.3985  12.0666  12.3314  12.9565  13.5240
    14.2135  14.2554  14.6861  15.8471

          k = 0.3434-0.3966 0.0000 (   492 PWs)   bands (ev):

     9.0913  10.2897  10.3932  10.8000  12.2065  12.5281  12.8299  14.1653
    14.6541  14.8434  15.6082  18.8887

          k = 0.5152-0.0991 0.0000 (   492 PWs)   bands (ev):

     9.0913  10.2897  10.3932  10.8000  12.2065  12.5281  12.8299  14.1653
    14.6541  14.8434  15.6082  18.8887

          k = 0.3434-0.3966 0.2152 (   492 PWs)   bands (ev):

     9.3754  10.0004  10.8034  11.2383  11.9759  12.2530  13.0961  13.9043
    14.3991  14.8621  15.7767  17.1505

          k = 0.5152-0.0991-0.2152 (   492 PWs)   bands (ev):

     9.3754  10.0004  10.8034  11.2383  11.9759  12.2530  13.0961  13.9043
    14.3991  14.8621  15.7767  17.1505

     the Fermi energy is    12.4869 ev

!    total energy              =    -111.57924446 Ry
     estimated scf accuracy    <       0.00000009 Ry
     smearing contrib. (-TS)   =      -0.00002276 Ry
     internal energy E=F+TS    =    -111.57922170 Ry

     The total energy is F=E-TS. E is the sum of the following terms:
     one-electron contribution =      11.66857946 Ry
     hartree contribution      =      14.07708230 Ry
     xc contribution           =     -52.89380090 Ry
     ewald contribution        =     -84.43108255 Ry

     total magnetization       =     5.31 Bohr mag/cell
     absolute magnetization    =     5.60 Bohr mag/cell

     convergence has been achieved in   7 iterations

     Forces acting on atoms (cartesian axes, Ry/au):

     atom    1 type  1   force =     0.00000000    0.00000043    0.00000000
     atom    2 type  1   force =     0.00000000   -0.00000043    0.00000000

     Total force =     0.000001     Total SCF correction =     0.000002
     SCF correction compared to forces is large: reduce conv_thr to get better values


     Computing stress (Cartesian axis) and pressure

          total   stress  (Ry/bohr**3)                   (kbar)     P=      -33.29
  -0.00056683   0.00000000   0.00000000          -83.38        0.00        0.00
   0.00000000  -0.00056682   0.00000000            0.00      -83.38        0.00
   0.00000000   0.00000000   0.00045481            0.00        0.00       66.91

     Energy error            =      9.1E-03 Ry
     Gradient error          =      4.3E-07 Ry/Bohr
     Cell gradient error     =      8.3E+01 kbar

     number of scf cycles    =   2
     number of bfgs steps    =   1

     enthalpy           old  =    -111.5701146919 Ry
     enthalpy           new  =    -111.5792444612 Ry

     CASE: enthalpy          _new < enthalpy          _old

     new trust radius        =       0.0870704493 bohr
     new conv_thr            =       0.0000000010 Ry

     new unit-cell volume =    159.54630 a.u.^3 (    23.64232 Ang^3 )
     density =      7.84464 g/cm^3

CELL_PARAMETERS (angstrom)
   2.532512348   0.000000000   0.000000000
  -1.266256174   2.193222124   0.000000000
   0.000000000   0.000000000   4.256532512

ATOMIC_POSITIONS (angstrom)
Fe               0.0000000000        0.0000017867        0.0000000000
Fe               0.0000000000        1.4621503039        2.1282662562


     Message from routine punch:
     Nothing written, as per user request (disk_io='none')
     NEW-OLD atomic charge density approx. for the potential
     New effective cutoffs (rho, wfc):  340.75   34.04

     Check: negative core charge=   -0.000002
     Generating pointlists ...
     new r_m :   0.3869 (alat units)  1.9741 (a.u.) for type    1

     total cpu time spent up to now is        9.9 secs

     Self-consistent Calculation

     iteration #  1     ecut=    30.00 Ry     beta= 0.50
     Davidson diagonalization with overlap
     ethr =  1.00E-06,  avg # of iterations =  7.5

     total cpu time spent up to now is       10.7 secs

     total energy              =    -111.58296115 Ry
     estimated scf accuracy    <       0.00103018 Ry

     total magnetization       =     5.29 Bohr mag/cell
     absolute magnetization    =     5.55 Bohr mag/cell

     iteration #  2     ecut=    30.00 Ry     beta= 0.50
     Davidson diagonalization with overlap
     ethr =  6.44E-06,  avg # of iterations =  1.1

     total cpu time spent up to now is       11.0 secs

     total energy              =    -111.58273641 Ry
     estimated scf accuracy    <       0.00136274 Ry

     total magnetization       =     5.30 Bohr mag/cell
     absolute magnetization    =     5.56 Bohr mag/cell

     iteration #  3     ecut=    30.00 Ry     beta= 0.50
     Davidson diagonalization with overlap
     ethr =  6.44E-06,  avg # of iterations =  1.6

     total cpu time spent up to now is       11.4 secs

     total energy              =    -111.58278251 Ry
     estimated scf accuracy    <       0.00735605 Ry

     total magnetization       =     5.30 Bohr mag/cell
     absolute magnetization    =     5.56 Bohr mag/cell

     iteration #  4     ecut=    30.00 Ry     beta= 0.50
     Davidson diagonalization with overlap
     ethr =  6.44E-06,  avg # of iterations =  1.0

     total cpu time spent up to now is       11.7 secs

     total energy              =    -111.58318904 Ry
     estimated scf accuracy    <       0.00002297 Ry

     total magnetization       =     5.31 Bohr mag/cell
     absolute magnetization    =     5.55 Bohr mag/cell

     iteration #  5     ecut=    30.00 Ry     beta= 0.50
     Davidson diagonalization with overlap
     ethr =  1.44E-07,  avg # of iterations =  3.3

     total cpu time spent up to now is       12.1 secs

     total energy              =    -111.58320596 Ry
     estimated scf accuracy    <       0.00000743 Ry

     total magnetization       =     5.31 Bohr mag/cell
     absolute magnetization    =     5.55 Bohr mag/cell

     iteration #  6     ecut=    30.00 Ry     beta= 0.50
     Davidson diagonalization with overlap
     ethr =  4.64E-08,  avg # of iterations =  2.7

     total cpu time spent up to now is       12.5 secs

     total energy              =    -111.58321027 Ry
     estimated scf accuracy    <       0.00000047 Ry

     total magnetization       =     5.31 Bohr mag/cell
     absolute magnetization    =     5.55 Bohr mag/cell

     iteration #  7     ecut=    30.00 Ry     beta= 0.50
     Davidson diagonalization with overlap
     ethr =  2.96E-09,  avg # of iterations =  5.4

     total cpu time spent up to now is       13.0 secs

     total energy              =    -111.58321093 Ry
     estimated scf accuracy    <       0.00000008 Ry

     total magnetization       =     5.31 Bohr mag/cell
     absolute magnetization    =     5.55 Bohr mag/cell

     iteration #  8     ecut=    30.00 Ry     beta= 0.50
     Davidson diagonalization with overlap
     ethr =  5.20E-10,  avg # of iterations =  4.1

     total cpu time spent up to now is       13.5 secs

     total energy              =    -111.58321103 Ry
     estimated scf accuracy    <       0.00000003 Ry

     total magnetization       =     5.31 Bohr mag/cell
     absolute magnetization    =     5.55 Bohr mag/cell

     iteration #  9     ecut=    30.00 Ry     beta= 0.50
     Davidson diagonalization with overlap
     ethr =  1.57E-10,  avg # of iterations =  2.9

     Magnetic moment per site  (integrated on atomic sphere of radius R)
     atom   1 (R=0.387)  charge=  6.5892  magn=  2.7001
     atom   2 (R=0.387)  charge=  6.5887  magn=  2.7000

     total cpu time spent up to now is       13.9 secs

     End of self-consistent calculation

 ------ SPIN UP ------------


          k = 0.0000 0.0000 0.0000 (   523 PWs)   bands (ev):

     4.6567   8.1001  10.4471  10.5503  10.5503  10.8230  10.8230  11.2482
    11.2482  12.2156  12.2156  12.7396

          k = 0.0000 0.0000 0.2114 (   512 PWs)   bands (ev):

     5.6348   7.6290  10.2573  10.4665  10.4665  10.6318  10.6318  10.6783
    11.6518  11.6518  12.1080  12.1080

          k = 0.0000 0.2052 0.0000 (   504 PWs)   bands (ev):

     5.5894   8.6424  10.0629  10.2616  10.5634  10.9755  11.0051  11.0065
    11.1091  11.2334  12.2930  15.4106

          k = 0.0000 0.2052 0.2114 (   505 PWs)   bands (ev):

     6.4817   8.3072   9.7402  10.1536  10.2370  10.6802  10.8049  11.0077
    11.5950  11.7472  12.1211  13.0748

          k = 0.0000 0.4104 0.0000 (   488 PWs)   bands (ev):

     7.6818   8.7742   9.0176  10.1428  10.6126  10.6522  10.6560  12.0149
    12.1376  12.1956  12.3634  19.0111

          k = 0.0000 0.4104 0.2114 (   499 PWs)   bands (ev):

     7.9104   8.5836   9.2851   9.7068  10.8321  10.9475  11.5294  11.6935
    12.1124  12.1659  12.2933  14.7316

          k = 0.0000-0.6155 0.0000 (   492 PWs)   bands (ev):

     8.3985   8.4953   8.6044  10.4393  10.4434  10.8847  10.9653  12.3777
    12.5550  12.6759  14.5960  16.5634

          k = 0.0000-0.6155 0.2114 (   494 PWs)   bands (ev):

     8.0337   8.4050   9.2824   9.3819  10.8593  11.3967  11.8106  12.5862
    12.5981  12.6510  14.0853  15.7596

          k = 0.1777 0.3078 0.0000 (   497 PWs)   bands (ev):

     7.2102   9.2455   9.3527   9.5629  10.4246  10.5021  11.0016  11.2538
    11.8843  12.2651  12.2676  18.0356

          k = 0.1777 0.3078 0.2114 (   500 PWs)   bands (ev):

     7.7784   8.8642   9.5438   9.7505  10.2517  10.4019  10.9289  11.4960
    11.9715  12.1553  12.4718  14.3536

          k = 0.1777 0.5129 0.0000 (   492 PWs)   bands (ev):

     8.7865   8.7912   8.9235  10.0231  10.2161  10.5397  10.9091  12.0278
    12.2218  12.5487  14.3699  18.9548

          k = 0.1777 0.5129 0.2114 (   492 PWs)   bands (ev):

     8.4468   8.8523   9.3348   9.7949  10.2421  10.9334  11.2569  11.6283
    12.2168  12.6708  14.7107  16.7760

          k = 0.3554 0.6155 0.0000 (   492 PWs)   bands (ev):

     8.8339   9.4115   9.4116   9.5768  10.1930  10.1931  11.1161  12.0845
    12.2450  12.2451  17.7759  18.5844

          k = 0.3554 0.6155 0.2114 (   495 PWs)   bands (ev):

     9.1694   9.3355   9.3355   9.5707  10.2331  10.2332  11.0683  11.4716
    12.3996  12.3996  18.8037  18.8037

          k = 0.1777-0.1026 0.0000 (   504 PWs)   bands (ev):

     5.5894   8.6424  10.0629  10.2616  10.5634  10.9755  11.0050  11.0065
    11.1091  11.2334  12.2930  15.4106

          k = 0.1777-0.1026 0.2114 (   505 PWs)   bands (ev):

     6.4817   8.3072   9.7402  10.1536  10.2370  10.6802  10.8049  11.0077
    11.5950  11.7472  12.1211  13.0748

          k = 0.3554-0.2052 0.0000 (   488 PWs)   bands (ev):

     7.6818   8.7742   9.0176  10.1428  10.6126  10.6522  10.6560  12.0149
    12.1376  12.1956  12.3634  19.0111

          k = 0.3554-0.2052 0.2114 (   499 PWs)   bands (ev):

     7.9104   8.5836   9.2851   9.7068  10.8321  10.9475  11.5295  11.6935
    12.1124  12.1659  12.2933  14.7316

          k =-0.5331 0.3078 0.0000 (   492 PWs)   bands (ev):

     8.3985   8.4953   8.6044  10.4393  10.4434  10.8847  10.9653  12.3777
    12.5550  12.6759  14.5960  16.5635

          k =-0.5331 0.3078 0.2114 (   494 PWs)   bands (ev):

     8.0337   8.4050   9.2824   9.3819  10.8593  11.3967  11.8106  12.5862
    12.5981  12.6510  14.0853  15.7596

          k = 0.3554 0.0000 0.0000 (   497 PWs)   bands (ev):

     7.2102   9.2455   9.3527   9.5629  10.4246  10.5021  11.0016  11.2538
    11.8843  12.2651  12.2676  18.0357

          k = 0.3554 0.0000-0.2114 (   500 PWs)   bands (ev):

     7.7784   8.8642   9.5438   9.7505  10.2517  10.4019  10.9289  11.4960
    11.9715  12.1553  12.4718  14.3536

          k = 0.3554-0.4104 0.0000 (   492 PWs)   bands (ev):

     8.7865   8.7912   8.9235  10.0231  10.2161  10.5397  10.9091  12.0278
    12.2218  12.5487  14.3699  18.9548

          k = 0.5331-0.1026 0.0000 (   492 PWs)   bands (ev):

     8.7865   8.7912   8.9235  10.0231  10.2161  10.5397  10.9091  12.0278
    12.2218  12.5487  14.3699  18.9548

          k = 0.3554-0.4104 0.2114 (   492 PWs)   bands (ev):

     8.4468   8.8523   9.3348   9.7949  10.2421  10.9334  11.2569  11.6283
    12.2168  12.6708  14.7107  16.7760

          k = 0.5331-0.1026-0.2114 (   492 PWs)   bands (ev):

     8.4468   8.8523   9.3348   9.7949  10.2421  10.9334  11.2569  11.6283
    12.2168  12.6708  14.7107  16.7760

 ------ SPIN DOWN ----------


          k = 0.0000 0.0000 0.0000 (   523 PWs)   bands (ev):

     4.8453   9.5362  12.8312  12.9386  13.3055  13.3055  13.6577  13.6577
    14.4532  14.4532  15.5949  15.5949

          k = 0.0000 0.0000 0.2114 (   512 PWs)   bands (ev):

     5.8393   8.2485  12.2204  12.6052  13.2433  13.2433  13.4401  13.4401
    14.9052  14.9052  15.4586  15.4586

          k = 0.0000 0.2052 0.0000 (   504 PWs)   bands (ev):

     5.7901  10.2106  11.9527  12.5535  13.2423  13.6289  13.8320  14.0564
    14.1324  14.1394  15.7002  17.3244

          k = 0.0000 0.2052 0.2114 (   505 PWs)   bands (ev):

     6.7247   8.9965  11.8407  12.6474  12.7737  13.2485  13.6769  13.8797
    14.7738  14.8399  15.4614  15.9636

          k = 0.0000 0.4104 0.0000 (   488 PWs)   bands (ev):

     8.1897  10.8203  11.0670  12.0355  13.0571  13.3963  13.6398  14.8060
    15.0437  15.1946  15.7919  20.4532

          k = 0.0000 0.4104 0.2114 (   499 PWs)   bands (ev):

     8.7843  10.1032  11.4392  12.0724  12.8713  13.4013  14.0114  14.8057
    15.1045  15.1975  15.5237  16.8310

          k = 0.0000-0.6155 0.0000 (   492 PWs)   bands (ev):

    10.0029  10.3779  10.7837  11.9760  13.0742  13.3838  13.4229  15.7153
    15.8097  15.8563  16.6845  18.2159

          k = 0.0000-0.6155 0.2114 (   494 PWs)   bands (ev):

     9.8100  10.2234  11.4691  11.5859  13.4255  13.9163  14.4455  15.0732
    15.7106  15.7700  15.8276  17.2084

          k = 0.1777 0.3078 0.0000 (   497 PWs)   bands (ev):

     7.5018  11.0712  11.3107  11.8612  13.0553  13.3375  13.9426  13.9481
    14.8124  15.1587  15.6678  19.6289

          k = 0.1777 0.3078 0.2114 (   500 PWs)   bands (ev):

     8.2641  10.0525  11.6180  12.1121  12.6928  12.9320  13.9173  14.4643
    15.0124  15.1780  15.5530  16.7118

          k = 0.1777 0.5129 0.0000 (   492 PWs)   bands (ev):

     9.9150  10.9521  10.9971  11.6383  12.9751  13.3224  13.4112  14.8957
    15.5919  15.6102  16.7661  20.2578

          k = 0.1777 0.5129 0.2114 (   492 PWs)   bands (ev):

    10.0856  10.6338  11.4631  11.9564  12.6780  13.0229  13.9330  14.7624
    15.1936  15.7804  16.9031  18.2485

          k = 0.3554 0.6155 0.0000 (   492 PWs)   bands (ev):

    11.1505  11.1505  11.1892  11.2675  12.8548  12.8548  13.7738  15.1459
    15.1459  15.4398  19.2714  19.9976

          k = 0.3554 0.6155 0.2114 (   495 PWs)   bands (ev):

    11.3522  11.3743  11.4438  11.4438  12.4222  12.4222  13.8452  14.6004
    15.3852  15.3852  20.1129  20.1130

          k = 0.1777-0.1026 0.0000 (   504 PWs)   bands (ev):

     5.7901  10.2106  11.9527  12.5535  13.2423  13.6289  13.8320  14.0564
    14.1324  14.1394  15.7002  17.3244

          k = 0.1777-0.1026 0.2114 (   505 PWs)   bands (ev):

     6.7247   8.9965  11.8407  12.6474  12.7737  13.2485  13.6769  13.8797
    14.7738  14.8399  15.4614  15.9636

          k = 0.3554-0.2052 0.0000 (   488 PWs)   bands (ev):

     8.1897  10.8203  11.0670  12.0355  13.0571  13.3963  13.6398  14.8060
    15.0437  15.1946  15.7919  20.4532

          k = 0.3554-0.2052 0.2114 (   499 PWs)   bands (ev):

     8.7843  10.1032  11.4392  12.0724  12.8713  13.4013  14.0113  14.8057
    15.1045  15.1975  15.5237  16.8310

          k =-0.5331 0.3078 0.0000 (   492 PWs)   bands (ev):

    10.0029  10.3779  10.7837  11.9760  13.0742  13.3838  13.4229  15.7153
    15.8097  15.8563  16.6845  18.2159

          k =-0.5331 0.3078 0.2114 (   494 PWs)   bands (ev):

     9.8100  10.2234  11.4691  11.5859  13.4255  13.9162  14.4455  15.0732
    15.7106  15.7700  15.8276  17.2084

          k = 0.3554 0.0000 0.0000 (   497 PWs)   bands (ev):

     7.5018  11.0712  11.3107  11.8612  13.0553  13.3375  13.9426  13.9481
    14.8124  15.1587  15.6678  19.6290

          k = 0.3554 0.0000-0.2114 (   500 PWs)   bands (ev):

     8.2641  10.0525  11.6180  12.1121  12.6928  12.9320  13.9173  14.4643
    15.0124  15.1780  15.5530  16.7118

          k = 0.3554-0.4104 0.0000 (   492 PWs)   bands (ev):

     9.9150  10.9521  10.9971  11.6383  12.9751  13.3224  13.4112  14.8957
    15.5919  15.6102  16.7662  20.2579

          k = 0.5331-0.1026 0.0000 (   492 PWs)   bands (ev):

     9.9150  10.9521  10.9971  11.6383  12.9751  13.3224  13.4112  14.8957
    15.5919  15.6102  16.7662  20.2578

          k = 0.3554-0.4104 0.2114 (   492 PWs)   bands (ev):

    10.0856  10.6338  11.4631  11.9564  12.6780  13.0229  13.9330  14.7624
    15.1936  15.7804  16.9031  18.2485

          k = 0.5331-0.1026-0.2114 (   492 PWs)   bands (ev):

    10.0856  10.6338  11.4631  11.9564  12.6780  13.0229  13.9330  14.7624
    15.1936  15.7804  16.9031  18.2485

     the Fermi energy is    13.2031 ev

!    total energy              =    -111.58321105 Ry
     estimated scf accuracy    <          3.5E-10 Ry
     smearing contrib. (-TS)   =       0.00007529 Ry
     internal energy E=F+TS    =    -111.58328633 Ry

     The total energy is F=E-TS. E is the sum of the following terms:
     one-electron contribution =      13.71834293 Ry
     hartree contribution      =      13.52432697 Ry
     xc contribution           =     -52.95754181 Ry
     ewald contribution        =     -85.86841442 Ry

     total magnetization       =     5.31 Bohr mag/cell
     absolute magnetization    =     5.55 Bohr mag/cell

     convergence has been achieved in   9 iterations

     Forces acting on atoms (cartesian axes, Ry/au):

     atom    1 type  1   force =     0.00000000    0.00000023    0.00000000
     atom    2 type  1   force =     0.00000000   -0.00000023    0.00000000

     Total force =     0.000000     Total SCF correction =     0.000000
     SCF correction compared to forces is large: reduce conv_thr to get better values


     Computing stress (Cartesian axis) and pressure

          total   stress  (Ry/bohr**3)                   (kbar)     P=       60.80
   0.00025443  -0.00000000   0.00000000           37.43       -0.00        0.00
  -0.00000000   0.00025443   0.00000000           -0.00       37.43        0.00
   0.00000000   0.00000000   0.00073114            0.00        0.00      107.55

     Energy error            =      4.0E-03 Ry
     Gradient error          =      2.3E-07 Ry/Bohr
     Cell gradient error     =      1.1E+02 kbar

     number of scf cycles    =   3
     number of bfgs steps    =   2

     enthalpy           old  =    -111.5792444612 Ry
     enthalpy           new  =    -111.5832110471 Ry

     CASE: enthalpy          _new < enthalpy          _old

     new trust radius        =       0.0337321544 bohr
     new conv_thr            =       0.0000000010 Ry

     new unit-cell volume =    161.99711 a.u.^3 (    24.00550 Ang^3 )
     density =      7.72596 g/cm^3

CELL_PARAMETERS (angstrom)
   2.535020628  -0.000000000   0.000000000
  -1.267510314   2.195394473   0.000000000
   0.000000000   0.000000000   4.313368926

ATOMIC_POSITIONS (angstrom)
Fe               0.0000000000        0.0000020685        0.0000000000
Fe               0.0000000000        1.4635982590        2.1566844631


     Message from routine punch:
     Nothing written, as per user request (disk_io='none')
     NEW-OLD atomic charge density approx. for the potential
     New effective cutoffs (rho, wfc):  340.06   33.97

     Check: negative core charge=   -0.000002
     Generating pointlists ...

     total cpu time spent up to now is       14.3 secs

     Self-consistent Calculation

     iteration #  1     ecut=    30.00 Ry     beta= 0.50
     Davidson diagonalization with overlap
     ethr =  1.00E-06,  avg # of iterations =  5.0

     total cpu time spent up to now is       15.0 secs

     total energy              =    -111.58447322 Ry
     estimated scf accuracy    <       0.00005951 Ry

     total magnetization       =     5.33 Bohr mag/cell
     absolute magnetization    =     5.57 Bohr mag/cell

     iteration #  2     ecut=    30.00 Ry     beta= 0.50
     Davidson diagonalization with overlap
     ethr =  3.72E-07,  avg # of iterations =  1.4

     total cpu time spent up to now is       15.3 secs

     total energy              =    -111.58449143 Ry
     estimated scf accuracy    <       0.00002143 Ry

     total magnetization       =     5.33 Bohr mag/cell
     absolute magnetization    =     5.57 Bohr mag/cell

     iteration #  3     ecut=    30.00 Ry     beta= 0.50
     Davidson diagonalization with overlap
     ethr =  1.34E-07,  avg # of iterations =  1.8

     total cpu time spent up to now is       15.6 secs

     total energy              =    -111.58449041 Ry
     estimated scf accuracy    <       0.00002848 Ry

     total magnetization       =     5.33 Bohr mag/cell
     absolute magnetization    =     5.58 Bohr mag/cell

     iteration #  4     ecut=    30.00 Ry     beta= 0.50
     Davidson diagonalization with overlap
     ethr =  1.34E-07,  avg # of iterations =  1.7

     total cpu time spent up to now is       16.0 secs

     total energy              =    -111.58449135 Ry
     estimated scf accuracy    <       0.00014061 Ry

     total magnetization       =     5.33 Bohr mag/cell
     absolute magnetization    =     5.58 Bohr mag/cell

     iteration #  5     ecut=    30.00 Ry     beta= 0.50
     Davidson diagonalization with overlap
     ethr =  1.34E-07,  avg # of iterations =  1.0

     total cpu time spent up to now is       16.3 secs

     total energy              =    -111.58449911 Ry
     estimated scf accuracy    <       0.00000030 Ry

     total magnetization       =     5.33 Bohr mag/cell
     absolute magnetization    =     5.58 Bohr mag/cell

     iteration #  6     ecut=    30.00 Ry     beta= 0.50
     Davidson diagonalization with overlap
     ethr =  1.85E-09,  avg # of iterations =  4.9

     total cpu time spent up to now is       16.8 secs

     total energy              =    -111.58449951 Ry
     estimated scf accuracy    <       0.00000020 Ry

     total magnetization       =     5.33 Bohr mag/cell
     absolute magnetization    =     5.58 Bohr mag/cell

     iteration #  7     ecut=    30.00 Ry     beta= 0.50
     Davidson diagonalization with overlap
     ethr =  1.24E-09,  avg # of iterations =  1.9

     total cpu time spent up to now is       17.2 secs

     total energy              =    -111.58449956 Ry
     estimated scf accuracy    <       0.00000002 Ry

     total magnetization       =     5.33 Bohr mag/cell
     absolute magnetization    =     5.58 Bohr mag/cell

     iteration #  8     ecut=    30.00 Ry     beta= 0.50
     Davidson diagonalization with overlap
     ethr =  1.01E-10,  avg # of iterations =  5.1

     total cpu time spent up to now is       17.7 secs

     total energy              =    -111.58449958 Ry
     estimated scf accuracy    <          3.3E-09 Ry

     total magnetization       =     5.33 Bohr mag/cell
     absolute magnetization    =     5.58 Bohr mag/cell

     iteration #  9     ecut=    30.00 Ry     beta= 0.50
     Davidson diagonalization with overlap
     ethr =  2.08E-11,  avg # of iterations =  3.6

     Magnetic moment per site  (integrated on atomic sphere of radius R)
     atom   1 (R=0.387)  charge=  6.5704  magn=  2.7154
     atom   2 (R=0.387)  charge=  6.5706  magn=  2.7154

     total cpu time spent up to now is       18.1 secs

     End of self-consistent calculation

 ------ SPIN UP ------------


          k = 0.0000 0.0000 0.0000 (   523 PWs)   bands (ev):

     4.4860   7.8983  10.1547  10.3242  10.3242  10.5773  10.5773  11.0176
    11.0176  11.9190  11.9190  12.3762

          k =-0.0000-0.0000 0.2087 (   512 PWs)   bands (ev):

     5.4368   7.4024   9.9819  10.2522  10.2523  10.3898  10.4041  10.4042
    11.3868  11.3868  11.8134  11.8134

          k = 0.0000 0.2050-0.0000 (   504 PWs)   bands (ev):

     5.4158   8.4469   9.8440  10.0016  10.3059  10.6921  10.7746  10.7839
    10.8506  10.9866  11.9883  15.0276

          k = 0.0000 0.2050 0.2087 (   505 PWs)   bands (ev):

     6.2842   8.0812   9.5141   9.9212   9.9979  10.4216  10.5924  10.7788
    11.3298  11.4625  11.8238  12.7456

          k = 0.0000 0.4099-0.0000 (   488 PWs)   bands (ev):

     7.5010   8.5813   8.7928   9.9353  10.3816  10.3952  10.4020  11.7749
    11.8871  11.9122  12.0464  18.5871

          k = 0.0000 0.4099 0.2087 (   499 PWs)   bands (ev):

     7.7219   8.3722   9.0666   9.4675  10.6027  10.7218  11.2802  11.4367
    11.8622  11.8657  12.0162  14.3790

          k =-0.0000-0.6149 0.0000 (   492 PWs)   bands (ev):

     8.2105   8.2978   8.3956  10.1592  10.2336  10.6856  10.6961  12.0557
    12.3113  12.4207  14.3259  16.2736

          k =-0.0000-0.6149 0.2087 (   494 PWs)   bands (ev):

     7.8481   8.2066   9.0629   9.1361  10.6312  11.1452  11.5277  12.2885
    12.3488  12.3978  13.8444  15.4743

          k = 0.1775 0.3075-0.0000 (   497 PWs)   bands (ev):

     7.0330   9.0606   9.1185   9.3607  10.1930  10.2421  10.7543  10.9618
    11.6433  11.9496  12.0113  17.6214

          k = 0.1775 0.3075 0.2087 (   500 PWs)   bands (ev):

     7.5855   8.6417   9.3392   9.5381  10.0075  10.1453  10.7017  11.2436
    11.6761  11.8929  12.1892  14.0023

          k = 0.1775 0.5124-0.0000 (   492 PWs)   bands (ev):

     8.5866   8.5994   8.7342   9.8318   9.9805  10.2864  10.6443  11.7456
    11.8928  12.2816  14.1156  18.6656

          k = 0.1775 0.5124 0.2087 (   492 PWs)   bands (ev):

     8.2568   8.6494   9.1241   9.5540  10.0247  10.6950  11.0087  11.3521
    11.9264  12.3867  14.4452  16.4589

          k = 0.3550 0.6149-0.0000 (   492 PWs)   bands (ev):

     8.6495   9.2296   9.2296   9.3847   9.9441   9.9441  10.8466  11.7453
    11.9543  11.9543  17.5403  18.3252

          k = 0.3550 0.6149 0.2087 (   495 PWs)   bands (ev):

     8.9715   9.1323   9.1323   9.3688  10.0027  10.0027  10.8048  11.1800
    12.1114  12.1114  18.5332  18.5332

          k = 0.1775-0.1025 0.0000 (   504 PWs)   bands (ev):

     5.4158   8.4469   9.8440  10.0016  10.3059  10.6921  10.7746  10.7839
    10.8506  10.9866  11.9883  15.0276

          k = 0.1775-0.1025 0.2087 (   505 PWs)   bands (ev):

     6.2842   8.0812   9.5141   9.9212   9.9979  10.4216  10.5924  10.7788
    11.3298  11.4625  11.8238  12.7456

          k = 0.3550-0.2050 0.0000 (   488 PWs)   bands (ev):

     7.5010   8.5813   8.7928   9.9353  10.3816  10.3952  10.4020  11.7749
    11.8871  11.9122  12.0464  18.5871

          k = 0.3550-0.2050 0.2087 (   499 PWs)   bands (ev):

     7.7219   8.3722   9.0666   9.4675  10.6027  10.7218  11.2803  11.4367
    11.8622  11.8657  12.0162  14.3790

          k =-0.5325 0.3075-0.0000 (   492 PWs)   bands (ev):

     8.2105   8.2978   8.3956  10.1592  10.2336  10.6856  10.6961  12.0557
    12.3113  12.4207  14.3259  16.2736

          k =-0.5325 0.3075 0.2087 (   494 PWs)   bands (ev):

     7.8481   8.2066   9.0629   9.1361  10.6312  11.1452  11.5277  12.2885
    12.3488  12.3978  13.8444  15.4743

          k = 0.3550 0.0000 0.0000 (   497 PWs)   bands (ev):

     7.0330   9.0606   9.1185   9.3607  10.1930  10.2421  10.7543  10.9618
    11.6433  11.9496  12.0113  17.6214

          k = 0.3550 0.0000-0.2087 (   500 PWs)   bands (ev):

     7.5855   8.6417   9.3392   9.5381  10.0075  10.1453  10.7017  11.2436
    11.6761  11.8929  12.1892  14.0023

          k = 0.3550-0.4099 0.0000 (   492 PWs)   bands (ev):

     8.5866   8.5994   8.7342   9.8318   9.9805  10.2864  10.6443  11.7456
    11.8928  12.2816  14.1156  18.6656

          k = 0.5325-0.1025 0.0000 (   492 PWs)   bands (ev):

     8.5866   8.5994   8.7342   9.8318   9.9805  10.2864  10.6443  11.7456
    11.8928  12.2816  14.1156  18.6656

          k = 0.3550-0.4099 0.2087 (   492 PWs)   bands (ev):

     8.2568   8.6494   9.1241   9.5540  10.0247  10.6950  11.0087  11.3521
    11.9264  12.3867  14.4452  16.4589

          k = 0.5325-0.1025-0.2087 (   492 PWs)   bands (ev):

     8.2568   8.6494   9.1241   9.5540  10.0247  10.6950  11.0087  11.3521
    11.9264  12.3867  14.4452  16.4590

 ------ SPIN DOWN ----------


          k = 0.0000 0.0000 0.0000 (   523 PWs)   bands (ev):

     4.6685   9.3132  12.4604  12.6331  13.0845  13.0846  13.4129  13.4129
    14.2697  14.2697  15.3401  15.3401

          k =-0.0000-0.0000 0.2087 (   512 PWs)   bands (ev):

     5.6341   7.9954  11.9399  12.3193  13.0366  13.0367  13.2178  13.2178
    14.6818  14.6818  15.2027  15.2027

          k = 0.0000 0.2050-0.0000 (   504 PWs)   bands (ev):

     5.6107   9.9983  11.6638  12.3350  12.9787  13.3440  13.6064  13.8572
    13.8869  13.9642  15.4357  16.9874

          k = 0.0000 0.2050 0.2087 (   505 PWs)   bands (ev):

     6.5197   8.7471  11.6119  12.3827  12.5692  13.0020  13.4774  13.6596
    14.5437  14.5903  15.2004  15.6738

          k = 0.0000 0.4099-0.0000 (   488 PWs)   bands (ev):

     8.0072  10.6306  10.8547  11.8483  12.7785  13.1615  13.4765  14.5079
    14.8072  14.9465  15.5126  20.0428

          k = 0.0000 0.4099 0.2087 (   499 PWs)   bands (ev):

     8.5908   9.8911  11.2369  11.8568  12.6344  13.1533  13.8317  14.5844
    14.8150  14.9508  15.2553  16.4937

          k =-0.0000-0.6149 0.0000 (   492 PWs)   bands (ev):

     9.8202  10.1928  10.6035  11.7946  12.8192  13.1008  13.2641  15.4748
    15.5244  15.6027  16.3834  17.8952

          k =-0.0000-0.6149 0.2087 (   494 PWs)   bands (ev):

     9.6388  10.0372  11.2705  11.3605  13.1785  13.7349  14.1881  14.8337
    15.4173  15.5230  15.5764  16.8947

          k = 0.1775 0.3075-0.0000 (   497 PWs)   bands (ev):

     7.3194  10.8826  11.0789  11.6670  12.7889  13.1470  13.6438  13.7470
    14.5752  14.9068  15.3863  19.2369

          k = 0.1775 0.3075 0.2087 (   500 PWs)   bands (ev):

     8.0640   9.8208  11.4230  11.9095  12.4567  12.6752  13.7290  14.2450
    14.7401  14.9242  15.2774  16.3864

          k = 0.1775 0.5124-0.0000 (   492 PWs)   bands (ev):

     9.7352  10.7695  10.8177  11.4584  12.7621  13.1246  13.1317  14.6027
    15.3146  15.3229  16.5051  19.9437

          k = 0.1775 0.5124 0.2087 (   492 PWs)   bands (ev):

     9.9071  10.4466  11.2646  11.7449  12.4624  12.7954  13.7077  14.5152
    14.9082  15.5014  16.6327  17.9336

          k = 0.3550 0.6149-0.0000 (   492 PWs)   bands (ev):

    10.9792  10.9793  11.0402  11.0833  12.6399  12.6399  13.4910  14.8473
    14.8474  15.1313  19.0184  19.7268

          k = 0.3550 0.6149 0.2087 (   495 PWs)   bands (ev):

    11.1834  11.1873  11.2633  11.2633  12.2034  12.2034  13.5809  14.3327
    15.1053  15.1053  19.8299  19.8299

          k = 0.1775-0.1025 0.0000 (   504 PWs)   bands (ev):

     5.6107   9.9983  11.6638  12.3350  12.9787  13.3440  13.6064  13.8572
    13.8869  13.9642  15.4357  16.9875

          k = 0.1775-0.1025 0.2087 (   505 PWs)   bands (ev):

     6.5197   8.7471  11.6119  12.3827  12.5692  13.0020  13.4773  13.6596
    14.5437  14.5903  15.2004  15.6738

          k = 0.3550-0.2050 0.0000 (   488 PWs)   bands (ev):

     8.0072  10.6306  10.8547  11.8483  12.7785  13.1615  13.4765  14.5079
    14.8072  14.9465  15.5126  20.0428

          k = 0.3550-0.2050 0.2087 (   499 PWs)   bands (ev):

     8.5908   9.8911  11.2369  11.8568  12.6344  13.1533  13.8317  14.5844
    14.8150  14.9508  15.2553  16.4937

          k =-0.5325 0.3075-0.0000 (   492 PWs)   bands (ev):

     9.8202  10.1928  10.6035  11.7946  12.8192  13.1008  13.2641  15.4748
    15.5244  15.6027  16.3834  17.8953

          k =-0.5325 0.3075 0.2087 (   494 PWs)   bands (ev):

     9.6388  10.0372  11.2705  11.3605  13.1785  13.7349  14.1881  14.8337
    15.4173  15.5230  15.5764  16.8947

          k = 0.3550 0.0000 0.0000 (   497 PWs)   bands (ev):

     7.3194  10.8826  11.0789  11.6670  12.7889  13.1470  13.6438  13.7470
    14.5752  14.9068  15.3863  19.2369

          k = 0.3550 0.0000-0.2087 (   500 PWs)   bands (ev):

     8.0640   9.8208  11.4230  11.9095  12.4567  12.6752  13.7290  14.2450
    14.7401  14.9242  15.2774  16.3864

          k = 0.3550-0.4099 0.0000 (   492 PWs)   bands (ev):

     9.7352  10.7695  10.8177  11.4584  12.7621  13.1245  13.1317  14.6027
    15.3146  15.3229  16.5051  19.9437

          k = 0.5325-0.1025 0.0000 (   492 PWs)   bands (ev):

     9.7352  10.7695  10.8177  11.4584  12.7621  13.1246  13.1317  14.6027
    15.3146  15.3229  16.5051  19.9437

          k = 0.3550-0.4099 0.2087 (   492 PWs)   bands (ev):

     9.9071  10.4466  11.2646  11.7449  12.4624  12.7954  13.7077  14.5152
    14.9082  15.5014  16.6327  17.9336

          k = 0.5325-0.1025-0.2087 (   492 PWs)   bands (ev):

     9.9071  10.4466  11.2646  11.7449  12.4624  12.7954  13.7077  14.5152
    14.9082  15.5014  16.6327  17.9336

     the Fermi energy is    12.9578 ev

!    total energy              =    -111.58449958 Ry
     estimated scf accuracy    <          2.2E-10 Ry
     smearing contrib. (-TS)   =       0.00027856 Ry
     internal energy E=F+TS    =    -111.58477814 Ry

     The total energy is F=E-TS. E is the sum of the following terms:
     one-electron contribution =      13.08315310 Ry
     hartree contribution      =      13.69619815 Ry
     xc contribution           =     -52.94141080 Ry
     ewald contribution        =     -85.42271859 Ry

     total magnetization       =     5.33 Bohr mag/cell
     absolute magnetization    =     5.58 Bohr mag/cell

     convergence has been achieved in   9 iterations

     Forces acting on atoms (cartesian axes, Ry/au):

     atom    1 type  1   force =     0.00000000    0.00000009   -0.00000000
     atom    2 type  1   force =    -0.00000000   -0.00000009    0.00000000

     Total force =     0.000000     Total SCF correction =     0.000000
     SCF correction compared to forces is large: reduce conv_thr to get better values


     Computing stress (Cartesian axis) and pressure

          total   stress  (Ry/bohr**3)                   (kbar)     P=       33.47
   0.00013144   0.00000000  -0.00000000           19.34        0.00       -0.00
   0.00000000   0.00013144  -0.00000000            0.00       19.34       -0.00
  -0.00000000  -0.00000000   0.00041977           -0.00       -0.00       61.75

     Energy error            =      1.3E-03 Ry
     Gradient error          =      8.7E-08 Ry/Bohr
     Cell gradient error     =      6.2E+01 kbar

     number of scf cycles    =   4
     number of bfgs steps    =   3

     enthalpy           old  =    -111.5832110471 Ry
     enthalpy           new  =    -111.5844995821 Ry

     CASE: enthalpy          _new < enthalpy          _old

     new trust radius        =       0.0476996589 bohr
     new conv_thr            =       0.0000000010 Ry

     new unit-cell volume =    165.01041 a.u.^3 (    24.45202 Ang^3 )
     density =      7.58488 g/cm^3

CELL_PARAMETERS (angstrom)
   2.534849318  -0.000000000   0.000000000
  -1.267424659   2.195246708  -0.000000000
  -0.000000000  -0.000000000   4.394194398

ATOMIC_POSITIONS (angstrom)
Fe               0.0000000000        0.0000024241       -0.0000000000
Fe              -0.0000000000        1.4634993929        2.1970971990


     Message from routine punch:
     Nothing written, as per user request (disk_io='none')
     NEW-OLD atomic charge density approx. for the potential
     New effective cutoffs (rho, wfc):  340.09   33.96

     Check: negative core charge=   -0.000003
     Generating pointlists ...

     total cpu time spent up to now is       18.6 secs

     Self-consistent Calculation

     iteration #  1     ecut=    30.00 Ry     beta= 0.50
     Davidson diagonalization with overlap
     ethr =  1.00E-06,  avg # of iterations =  5.7

     total cpu time spent up to now is       19.2 secs

     total energy              =    -111.58509113 Ry
     estimated scf accuracy    <       0.00009358 Ry

     total magnetization       =     5.34 Bohr mag/cell
     absolute magnetization    =     5.60 Bohr mag/cell

     iteration #  2     ecut=    30.00 Ry     beta= 0.50
     Davidson diagonalization with overlap
     ethr =  5.85E-07,  avg # of iterations =  1.2

     total cpu time spent up to now is       19.6 secs

     total energy              =    -111.58511293 Ry
     estimated scf accuracy    <       0.00002582 Ry

     total magnetization       =     5.34 Bohr mag/cell
     absolute magnetization    =     5.60 Bohr mag/cell

     iteration #  3     ecut=    30.00 Ry     beta= 0.50
     Davidson diagonalization with overlap
     ethr =  1.61E-07,  avg # of iterations =  2.1

     total cpu time spent up to now is       19.9 secs

     total energy              =    -111.58511492 Ry
     estimated scf accuracy    <       0.00001648 Ry

     total magnetization       =     5.34 Bohr mag/cell
     absolute magnetization    =     5.60 Bohr mag/cell

     iteration #  4     ecut=    30.00 Ry     beta= 0.50
     Davidson diagonalization with overlap
     ethr =  1.03E-07,  avg # of iterations =  1.5

     total cpu time spent up to now is       20.2 secs

     total energy              =    -111.58511585 Ry
     estimated scf accuracy    <       0.00007329 Ry

     total magnetization       =     5.34 Bohr mag/cell
     absolute magnetization    =     5.60 Bohr mag/cell

     iteration #  5     ecut=    30.00 Ry     beta= 0.50
     Davidson diagonalization with overlap
     ethr =  1.03E-07,  avg # of iterations =  1.0

     total cpu time spent up to now is       20.6 secs

     total energy              =    -111.58512030 Ry
     estimated scf accuracy    <       0.00000051 Ry

     total magnetization       =     5.34 Bohr mag/cell
     absolute magnetization    =     5.60 Bohr mag/cell

     iteration #  6     ecut=    30.00 Ry     beta= 0.50
     Davidson diagonalization with overlap
     ethr =  3.20E-09,  avg # of iterations =  4.3

     total cpu time spent up to now is       21.0 secs

     total energy              =    -111.58512071 Ry
     estimated scf accuracy    <       0.00000008 Ry

     total magnetization       =     5.34 Bohr mag/cell
     absolute magnetization    =     5.60 Bohr mag/cell

     iteration #  7     ecut=    30.00 Ry     beta= 0.50
     Davidson diagonalization with overlap
     ethr =  4.83E-10,  avg # of iterations =  4.6

     total cpu time spent up to now is       21.6 secs

     total energy              =    -111.58512079 Ry
     estimated scf accuracy    <       0.00000002 Ry

     total magnetization       =     5.34 Bohr mag/cell
     absolute magnetization    =     5.60 Bohr mag/cell

     iteration #  8     ecut=    30.00 Ry     beta= 0.50
     Davidson diagonalization with overlap
     ethr =  1.10E-10,  avg # of iterations =  3.3

     Magnetic moment per site  (integrated on atomic sphere of radius R)
     atom   1 (R=0.387)  charge=  6.5506  magn=  2.7236
     atom   2 (R=0.387)  charge=  6.5511  magn=  2.7236

     total cpu time spent up to now is       22.0 secs

     End of self-consistent calculation

 ------ SPIN UP ------------


          k = 0.0000 0.0000 0.0000 (   523 PWs)   bands (ev):

     4.2867   7.6505   9.7944  10.0612  10.0612  10.2887  10.2887  10.7583
    10.7583  11.5722  11.5722  11.9206

          k = 0.0000 0.0000 0.2048 (   512 PWs)   bands (ev):

     5.2000   7.1219   9.6449  10.0052  10.0052  10.0389  10.1393  10.1393
    11.0818  11.0818  11.4693  11.4693

          k = 0.0000 0.2050 0.0000 (   504 PWs)   bands (ev):

     5.2157   8.2118   9.5852   9.6882   9.9966  10.3519  10.5087  10.5344
    10.5529  10.6993  11.6303  14.5601

          k = 0.0000 0.2050 0.2048 (   505 PWs)   bands (ev):

     6.0512   7.8053   9.2459   9.6259   9.7340  10.1153  10.3518  10.5157
    11.0223  11.1272  11.4750  12.3522

          k = 0.0000 0.4100 0.0000 (   488 PWs)   bands (ev):

     7.2941   8.3520   8.5258   9.6869  10.0550  10.0972  10.1672  11.5026
    11.5755  11.6013  11.6712  18.0708

          k = 0.0000 0.4100 0.2048 (   499 PWs)   bands (ev):

     7.5033   8.1205   8.8063   9.1806  10.3362  10.4664  10.9897  11.1374
    11.5069  11.5771  11.6985  13.9526

          k =-0.0000-0.6150-0.0000 (   492 PWs)   bands (ev):

     7.9855   8.0640   8.1499   9.8164  10.0047  10.3764  10.4617  11.6733
    12.0379  12.1323  14.0169  15.9442

          k =-0.0000-0.6150 0.2048 (   494 PWs)   bands (ev):

     7.6321   7.9700   8.8031   8.8380  10.3725  10.8502  11.1959  11.9343
    12.0687  12.1122  13.5708  15.1444

          k = 0.1775 0.3075 0.0000 (   497 PWs)   bands (ev):

     6.8325   8.8388   8.8461   9.1244   9.9254   9.9294  10.4717  10.6072
    11.3681  11.5719  11.7209  17.1166

          k = 0.1775 0.3075 0.2048 (   500 PWs)   bands (ev):

     7.3628   8.3777   9.0991   9.2888   9.7169   9.8379  10.4435  10.9503
    11.3225  11.5900  11.8643  13.5795

          k = 0.1775 0.5125 0.0000 (   492 PWs)   bands (ev):

     8.3470   8.3832   8.5127   9.6147   9.7011   9.9960  10.3295  11.4114
    11.4988  11.9724  13.8330  18.3373

          k = 0.1775 0.5125 0.2048 (   492 PWs)   bands (ev):

     8.0372   8.4113   8.8759   9.2646   9.7768  10.4176  10.7194  11.0275
    11.5807  12.0534  14.1481  16.0881

          k = 0.3551 0.6150 0.0000 (   492 PWs)   bands (ev):

     8.4400   9.0242   9.0242   9.1629   9.6513   9.6514  10.5247  11.3347
    11.6082  11.6082  17.2918  18.0503

          k = 0.3551 0.6150 0.2048 (   495 PWs)   bands (ev):

     8.7440   8.8993   8.8993   9.1343   9.7325   9.7326  10.4912  10.8307
    11.7691  11.7691  18.2408  18.2408

          k = 0.1775-0.1025-0.0000 (   504 PWs)   bands (ev):

     5.2157   8.2118   9.5852   9.6882   9.9966  10.3519  10.5087  10.5344
    10.5529  10.6993  11.6303  14.5601

          k = 0.1775-0.1025 0.2048 (   505 PWs)   bands (ev):

     6.0512   7.8053   9.2459   9.6259   9.7340  10.1153  10.3518  10.5157
    11.0223  11.1272  11.4750  12.3522

          k = 0.3551-0.2050-0.0000 (   488 PWs)   bands (ev):

     7.2941   8.3520   8.5258   9.6869  10.0550  10.0972  10.1672  11.5026
    11.5755  11.6013  11.6712  18.0708

          k = 0.3551-0.2050 0.2048 (   499 PWs)   bands (ev):

     7.5033   8.1205   8.8063   9.1806  10.3362  10.4664  10.9897  11.1374
    11.5069  11.5771  11.6985  13.9526

          k =-0.5326 0.3075 0.0000 (   492 PWs)   bands (ev):

     7.9855   8.0640   8.1499   9.8164  10.0047  10.3764  10.4617  11.6733
    12.0379  12.1323  14.0169  15.9442

          k =-0.5326 0.3075 0.2048 (   494 PWs)   bands (ev):

     7.6321   7.9700   8.8031   8.8380  10.3725  10.8502  11.1959  11.9343
    12.0687  12.1122  13.5708  15.1445

          k = 0.3551 0.0000 0.0000 (   497 PWs)   bands (ev):

     6.8325   8.8388   8.8461   9.1244   9.9254   9.9294  10.4717  10.6072
    11.3681  11.5719  11.7209  17.1166

          k = 0.3551-0.0000-0.2048 (   500 PWs)   bands (ev):

     7.3628   8.3777   9.0991   9.2888   9.7169   9.8379  10.4435  10.9503
    11.3225  11.5900  11.8643  13.5795

          k = 0.3551-0.4100-0.0000 (   492 PWs)   bands (ev):

     8.3470   8.3832   8.5127   9.6147   9.7011   9.9960  10.3295  11.4114
    11.4988  11.9724  13.8330  18.3374

          k = 0.5326-0.1025-0.0000 (   492 PWs)   bands (ev):

     8.3470   8.3832   8.5127   9.6147   9.7011   9.9960  10.3295  11.4114
    11.4988  11.9724  13.8330  18.3373

          k = 0.3551-0.4100 0.2048 (   492 PWs)   bands (ev):

     8.0372   8.4113   8.8759   9.2646   9.7768  10.4176  10.7194  11.0275
    11.5807  12.0534  14.1481  16.0881

          k = 0.5326-0.1025-0.2048 (   492 PWs)   bands (ev):

     8.0372   8.4113   8.8759   9.2646   9.7768  10.4176  10.7194  11.0275
    11.5807  12.0534  14.1481  16.0881

 ------ SPIN DOWN ----------


          k = 0.0000 0.0000 0.0000 (   523 PWs)   bands (ev):

     4.4586   9.0311  11.9887  12.2430  12.8198  12.8198  13.1163  13.1163
    14.0560  14.0560  15.0302  15.0302

          k = 0.0000 0.0000 0.2048 (   512 PWs)   bands (ev):

     5.3860   7.6790  11.5862  11.9557  12.7888  12.7889  12.9498  12.9498
    14.4169  14.4169  14.8934  14.8934

          k = 0.0000 0.2050 0.0000 (   504 PWs)   bands (ev):

[...]

     Check: negative core charge=   -0.000006
     Generating pointlists ...

     Initial potential from superposition of free atoms

     starting charge      15.9987, renormalised to      16.0000
     Starting wfcs are   12 randomized atomic wfcs

     total cpu time spent up to now is       28.6 secs

     Self-consistent Calculation

     iteration #  1     ecut=    30.00 Ry     beta= 0.50
     Davidson diagonalization with overlap
     c_bands:  1 eigenvalues not converged
     c_bands:  1 eigenvalues not converged
     c_bands:  1 eigenvalues not converged
     c_bands:  1 eigenvalues not converged
     c_bands:  1 eigenvalues not converged
     c_bands:  1 eigenvalues not converged
     c_bands:  1 eigenvalues not converged
     c_bands:  1 eigenvalues not converged
     c_bands:  1 eigenvalues not converged
     c_bands:  1 eigenvalues not converged
     c_bands:  1 eigenvalues not converged
     ethr =  1.00E-06,  avg # of iterations = 16.8

     total cpu time spent up to now is       29.8 secs

     total energy              =    -111.31334201 Ry
     estimated scf accuracy    <       0.70731911 Ry

     total magnetization       =     5.00 Bohr mag/cell
     absolute magnetization    =     5.00 Bohr mag/cell

     iteration #  2     ecut=    30.00 Ry     beta= 0.50
     Davidson diagonalization with overlap
     ethr =  4.42E-03,  avg # of iterations =  2.5

     total cpu time spent up to now is       30.2 secs

     total energy              =    -111.55069055 Ry
     estimated scf accuracy    <       0.16088370 Ry

     total magnetization       =     5.33 Bohr mag/cell
     absolute magnetization    =     5.35 Bohr mag/cell

     iteration #  3     ecut=    30.00 Ry     beta= 0.50
     Davidson diagonalization with overlap
     ethr =  1.01E-03,  avg # of iterations =  1.5

     total cpu time spent up to now is       30.5 secs

     total energy              =    -111.57595475 Ry
     estimated scf accuracy    <       0.01019058 Ry

     total magnetization       =     5.34 Bohr mag/cell
     absolute magnetization    =     5.39 Bohr mag/cell

     iteration #  4     ecut=    30.00 Ry     beta= 0.50
     Davidson diagonalization with overlap
     ethr =  6.37E-05,  avg # of iterations =  3.4

     total cpu time spent up to now is       30.9 secs

     total energy              =    -111.58363046 Ry
     estimated scf accuracy    <       0.01483551 Ry

     total magnetization       =     5.35 Bohr mag/cell
     absolute magnetization    =     5.53 Bohr mag/cell

     iteration #  5     ecut=    30.00 Ry     beta= 0.50
     Davidson diagonalization with overlap
     ethr =  6.37E-05,  avg # of iterations =  1.1

     total cpu time spent up to now is       31.2 secs

     total energy              =    -111.58058468 Ry
     estimated scf accuracy    <       0.02974495 Ry

     total magnetization       =     5.35 Bohr mag/cell
     absolute magnetization    =     5.54 Bohr mag/cell

     iteration #  6     ecut=    30.00 Ry     beta= 0.50
     Davidson diagonalization with overlap
     ethr =  6.37E-05,  avg # of iterations =  2.8

     total cpu time spent up to now is       31.5 secs

     total energy              =    -111.58360779 Ry
     estimated scf accuracy    <       0.00716308 Ry

     total magnetization       =     5.34 Bohr mag/cell
     absolute magnetization    =     5.58 Bohr mag/cell

     iteration #  7     ecut=    30.00 Ry     beta= 0.50
     Davidson diagonalization with overlap
     ethr =  4.48E-05,  avg # of iterations =  1.8

     total cpu time spent up to now is       31.8 secs

     total energy              =    -111.58459872 Ry
     estimated scf accuracy    <       0.00013415 Ry

     total magnetization       =     5.34 Bohr mag/cell
     absolute magnetization    =     5.60 Bohr mag/cell

     iteration #  8     ecut=    30.00 Ry     beta= 0.50
     Davidson diagonalization with overlap
     ethr =  8.38E-07,  avg # of iterations =  3.5

     total cpu time spent up to now is       32.2 secs

     total energy              =    -111.58471423 Ry
     estimated scf accuracy    <       0.00000920 Ry

     total magnetization       =     5.34 Bohr mag/cell
     absolute magnetization    =     5.60 Bohr mag/cell

     iteration #  9     ecut=    30.00 Ry     beta= 0.50
     Davidson diagonalization with overlap
     ethr =  5.75E-08,  avg # of iterations =  5.0

     total cpu time spent up to now is       32.7 secs

     total energy              =    -111.58471965 Ry
     estimated scf accuracy    <       0.00000798 Ry

     total magnetization       =     5.34 Bohr mag/cell
     absolute magnetization    =     5.60 Bohr mag/cell

     iteration # 10     ecut=    30.00 Ry     beta= 0.50
     Davidson diagonalization with overlap
     ethr =  4.99E-08,  avg # of iterations =  2.3

     total cpu time spent up to now is       33.0 secs

     total energy              =    -111.58472182 Ry
     estimated scf accuracy    <       0.00000007 Ry

     total magnetization       =     5.34 Bohr mag/cell
     absolute magnetization    =     5.60 Bohr mag/cell

     iteration # 11     ecut=    30.00 Ry     beta= 0.50
     Davidson diagonalization with overlap
     ethr =  4.68E-10,  avg # of iterations =  8.6

     total cpu time spent up to now is       33.7 secs

     total energy              =    -111.58472228 Ry
     estimated scf accuracy    <       0.00000040 Ry

     total magnetization       =     5.34 Bohr mag/cell
     absolute magnetization    =     5.60 Bohr mag/cell

     iteration # 12     ecut=    30.00 Ry     beta= 0.50
     Davidson diagonalization with overlap
     ethr =  4.68E-10,  avg # of iterations =  2.6

     total cpu time spent up to now is       34.1 secs

     total energy              =    -111.58472228 Ry
     estimated scf accuracy    <       0.00000007 Ry

     total magnetization       =     5.34 Bohr mag/cell
     absolute magnetization    =     5.60 Bohr mag/cell

     iteration # 13     ecut=    30.00 Ry     beta= 0.50
     Davidson diagonalization with overlap
     ethr =  4.66E-10,  avg # of iterations =  2.6

     total cpu time spent up to now is       34.4 secs

     total energy              =    -111.58472230 Ry
     estimated scf accuracy    <          5.6E-09 Ry

     total magnetization       =     5.34 Bohr mag/cell
     absolute magnetization    =     5.60 Bohr mag/cell

     iteration # 14     ecut=    30.00 Ry     beta= 0.50
     Davidson diagonalization with overlap
     ethr =  3.51E-11,  avg # of iterations =  3.5

     Magnetic moment per site  (integrated on atomic sphere of radius R)
     atom   1 (R=0.387)  charge=  6.5496  magn=  2.7237
     atom   2 (R=0.387)  charge=  6.5505  magn=  2.7238

     total cpu time spent up to now is       34.8 secs

     End of self-consistent calculation

 ------ SPIN UP ------------


          k = 0.0000 0.0000 0.0000 (   453 PWs)   bands (ev):

     4.2803   7.6446   9.7923  10.0525  10.0525  10.2805  10.2805  10.7474
    10.7474  11.5635  11.5635  11.9212

          k = 0.0000 0.0000 0.2049 (   452 PWs)   bands (ev):

     5.1944   7.1174   9.6418   9.9955   9.9955  10.0360  10.1304  10.1304
    11.0719  11.0719  11.4606  11.4606

          k = 0.0000 0.2049 0.0000 (   453 PWs)   bands (ev):

     5.2083   8.2047   9.5774   9.6828   9.9901  10.3463  10.4987  10.5233
    10.5441  10.6896  11.6218  14.5554

          k = 0.0000 0.2049 0.2049 (   452 PWs)   bands (ev):

     6.0446   7.7998   9.2397   9.6204   9.7255  10.1085  10.3406  10.5054
    11.0128  11.1193  11.4663  12.3450

          k = 0.0000 0.4098 0.0000 (   461 PWs)   bands (ev):

     7.2856   8.3450   8.5205   9.6786  10.0488  10.0896  10.1557  11.4896
    11.5664  11.5889  11.6633  18.0645

          k = 0.0000 0.4098 0.2049 (   458 PWs)   bands (ev):

     7.4961   8.1146   8.8006   9.1750  10.3271  10.4556  10.9798  11.1271
    11.4995  11.5646  11.6876  13.9453

          k =-0.0000-0.6146-0.0000 (   460 PWs)   bands (ev):

     7.9793   8.0573   8.1450   9.8120   9.9935  10.3701  10.4505  11.6658
    12.0237  12.1184  14.0034  15.9277

          k =-0.0000-0.6146 0.2049 (   462 PWs)   bands (ev):

     7.6258   7.9642   8.7968   8.8335  10.3620  10.8418  11.1874  11.9255
    12.0546  12.0983  13.5585  15.1311

          k = 0.1774 0.3073 0.0000 (   464 PWs)   bands (ev):

     6.8236   8.8334   8.8373   9.1164   9.9162   9.9229  10.4620  10.6018
    11.3560  11.5645  11.7085  17.1107

          k = 0.1774 0.3073 0.2049 (   454 PWs)   bands (ev):

     7.3550   8.3719   9.0912   9.2809   9.7100   9.8319  10.4327  10.9404
    11.3154  11.5789  11.8534  13.5721

          k = 0.1774 0.5122 0.0000 (   455 PWs)   bands (ev):

     8.3411   8.3747   8.5054   9.6043   9.6936   9.9879  10.3227  11.4026
    11.4926  11.9607  13.8168  18.3196

          k = 0.1774 0.5122 0.2049 (   461 PWs)   bands (ev):

     8.0300   8.4045   8.8690   9.2586   9.7676  10.4083  10.7099  11.0188
    11.5724  12.0429  14.1327  16.0756

          k = 0.3549 0.6146 0.0000 (   456 PWs)   bands (ev):

     8.4324   9.0144   9.0144   9.1539   9.6446   9.6446  10.5169  11.3297
    11.5998  11.5998  17.2721  18.0283

          k = 0.3549 0.6146 0.2049 (   462 PWs)   bands (ev):

     8.7365   8.8914   8.8914   9.1262   9.7243   9.7243  10.4831  10.8236
    11.7602  11.7602  18.2207  18.2208

          k = 0.1774-0.1024-0.0000 (   453 PWs)   bands (ev):

     5.2083   8.2047   9.5774   9.6828   9.9902  10.3463  10.4987  10.5233
    10.5441  10.6896  11.6218  14.5554

          k = 0.1774-0.1024 0.2049 (   452 PWs)   bands (ev):

     6.0446   7.7998   9.2397   9.6204   9.7255  10.1085  10.3406  10.5054
    11.0128  11.1193  11.4663  12.3450

          k = 0.3549-0.2049-0.0000 (   461 PWs)   bands (ev):

     7.2856   8.3450   8.5205   9.6786  10.0488  10.0896  10.1557  11.4896
    11.5664  11.5889  11.6633  18.0646

          k = 0.3549-0.2049 0.2049 (   458 PWs)   bands (ev):

     7.4961   8.1146   8.8006   9.1750  10.3271  10.4556  10.9798  11.1271
    11.4995  11.5646  11.6876  13.9453

          k =-0.5323 0.3073 0.0000 (   460 PWs)   bands (ev):

     7.9793   8.0573   8.1450   9.8120   9.9935  10.3701  10.4505  11.6658
    12.0237  12.1184  14.0034  15.9277

          k =-0.5323 0.3073 0.2049 (   462 PWs)   bands (ev):

     7.6258   7.9642   8.7968   8.8335  10.3620  10.8418  11.1874  11.9255
    12.0546  12.0983  13.5585  15.1311

          k = 0.3549-0.0000-0.0000 (   464 PWs)   bands (ev):

     6.8236   8.8333   8.8373   9.1164   9.9162   9.9229  10.4620  10.6018
    11.3560  11.5645  11.7085  17.1107

          k = 0.3549-0.0000-0.2049 (   454 PWs)   bands (ev):

     7.3550   8.3719   9.0912   9.2809   9.7100   9.8319  10.4327  10.9404
    11.3154  11.5789  11.8534  13.5721

          k = 0.3549-0.4098-0.0000 (   455 PWs)   bands (ev):

     8.3411   8.3747   8.5054   9.6043   9.6936   9.9879  10.3227  11.4026
    11.4926  11.9607  13.8168  18.3196

          k = 0.5323-0.1024-0.0000 (   455 PWs)   bands (ev):

     8.3411   8.3747   8.5054   9.6043   9.6936   9.9879  10.3227  11.4026
    11.4926  11.9607  13.8168  18.3196

          k = 0.3549-0.4098 0.2049 (   461 PWs)   bands (ev):

     8.0300   8.4045   8.8690   9.2586   9.7676  10.4083  10.7099  11.0188
    11.5724  12.0429  14.1327  16.0757

          k = 0.5323-0.1024-0.2049 (   461 PWs)   bands (ev):

     8.0300   8.4045   8.8690   9.2586   9.7676  10.4083  10.7099  11.0188
    11.5724  12.0429  14.1328  16.0757

 ------ SPIN DOWN ----------


          k = 0.0000 0.0000 0.0000 (   453 PWs)   bands (ev):

     4.4513   9.0261  11.9888  12.2430  12.8120  12.8120  13.1094  13.1094
    14.0439  14.0439  15.0203  15.0203

          k = 0.0000 0.0000 0.2049 (   452 PWs)   bands (ev):

     5.3795   7.6744  11.5841  11.9544  12.7799  12.7800  12.9420  12.9420
    14.4056  14.4056  14.8835  14.8835

          k = 0.0000 0.2049 0.0000 (   453 PWs)   bands (ev):

     5.3916   9.7273  11.2930  12.0587  12.6460  12.9901  13.3291  13.5835
    13.6096  13.7486  15.1026  16.5647

          k = 0.0000 0.2049 0.2049 (   452 PWs)   bands (ev):

     6.2669   8.4326  11.3206  12.0446  12.3157  12.6964  13.2298  13.3875
    14.2601  14.2787  14.8741  15.3091

          k = 0.0000 0.4098 0.0000 (   461 PWs)   bands (ev):

     7.7869  10.3915  10.5834  11.6189  12.4285  12.8646  13.2753  14.1336
    14.5180  14.6431  15.1594  19.5257

          k = 0.0000 0.4098 0.2049 (   458 PWs)   bands (ev):

     8.3537   9.6244  10.9826  11.5835  12.3433  12.8463  13.6099  14.3112
    14.4486  14.6481  14.9214  16.0666

          k =-0.0000-0.6146-0.0000 (   460 PWs)   bands (ev):

     9.5958   9.9600  10.3764  11.5798  12.4942  12.7458  13.0692  15.1631
    15.1829  15.2940  16.0093  17.4988

          k =-0.0000-0.6146 0.2049 (   462 PWs)   bands (ev):

     9.4260   9.8044  11.0224  11.0761  12.8736  13.5099  13.8743  14.5323
    15.0470  15.2229  15.2708  16.5038

          k = 0.1774 0.3073 0.0000 (   464 PWs)   bands (ev):

     7.0992  10.6472  10.7819  11.4265  12.4540  12.9071  13.2575  13.5060
    14.2846  14.5982  15.0295  18.7435

          k = 0.1774 0.3073 0.2049 (   454 PWs)   bands (ev):

     7.8190   9.5301  11.1795  11.6575  12.1577  12.3522  13.4970  13.9723
    14.3987  14.6115  14.9340  15.9753

          k = 0.1774 0.5122 0.0000 (   455 PWs)   bands (ev):

     9.5186  10.5427  10.5907  11.2401  12.4876  12.7809  12.8835  14.2350
    14.9383  14.9893  16.1898  19.5579

          k = 0.1774 0.5122 0.2049 (   461 PWs)   bands (ev):

     9.6877  10.2131  11.0173  11.4804  12.1939  12.5133  13.4289  14.2029
    14.5475  15.1520  16.3052  17.5461

          k = 0.3549 0.6146 0.0000 (   456 PWs)   bands (ev):

    10.7723  10.7723  10.8553  10.8588  12.3690  12.3690  13.1349  14.4723
    14.4723  14.7355  18.7208  19.4080

          k = 0.3549 0.6146 0.2049 (   462 PWs)   bands (ev):

    10.9581  10.9740  11.0422  11.0423  11.9310  11.9310  13.2472  13.9910
    14.7529  14.7529  19.4939  19.4939

          k = 0.1774-0.1024-0.0000 (   453 PWs)   bands (ev):

     5.3916   9.7273  11.2930  12.0587  12.6460  12.9901  13.3291  13.5835
    13.6097  13.7485  15.1026  16.5647

          k = 0.1774-0.1024 0.2049 (   452 PWs)   bands (ev):

     6.2669   8.4326  11.3206  12.0446  12.3157  12.6964  13.2298  13.3875
    14.2601  14.2787  14.8741  15.3091

          k = 0.3549-0.2049-0.0000 (   461 PWs)   bands (ev):

     7.7869  10.3915  10.5834  11.6189  12.4285  12.8646  13.2753  14.1336
    14.5180  14.6431  15.1594  19.5257

          k = 0.3549-0.2049 0.2049 (   458 PWs)   bands (ev):

     8.3537   9.6244  10.9826  11.5835  12.3433  12.8463  13.6099  14.3112
    14.4486  14.6481  14.9214  16.0666

          k =-0.5323 0.3073 0.0000 (   460 PWs)   bands (ev):

     9.5958   9.9600  10.3764  11.5798  12.4942  12.7459  13.0692  15.1631
    15.1829  15.2940  16.0093  17.4988

          k =-0.5323 0.3073 0.2049 (   462 PWs)   bands (ev):

     9.4260   9.8044  11.0224  11.0761  12.8736  13.5099  13.8743  14.5322
    15.0470  15.2229  15.2708  16.5038

          k = 0.3549-0.0000-0.0000 (   464 PWs)   bands (ev):

     7.0992  10.6472  10.7819  11.4265  12.4540  12.9071  13.2575  13.5060
    14.2846  14.5982  15.0295  18.7435

          k = 0.3549-0.0000-0.2049 (   454 PWs)   bands (ev):

     7.8190   9.5301  11.1795  11.6575  12.1577  12.3522  13.4970  13.9722
    14.3987  14.6115  14.9340  15.9753

          k = 0.3549-0.4098-0.0000 (   455 PWs)   bands (ev):

     9.5186  10.5427  10.5907  11.2401  12.4876  12.7809  12.8835  14.2350
    14.9383  14.9893  16.1898  19.5580

          k = 0.5323-0.1024-0.0000 (   455 PWs)   bands (ev):

     9.5186  10.5427  10.5907  11.2401  12.4876  12.7809  12.8835  14.2350
    14.9383  14.9893  16.1899  19.5580

          k = 0.3549-0.4098 0.2049 (   461 PWs)   bands (ev):

     9.6877  10.2131  11.0173  11.4804  12.1939  12.5133  13.4289  14.2029
    14.5475  15.1520  16.3052  17.5461

          k = 0.5323-0.1024-0.2049 (   461 PWs)   bands (ev):

     9.6877  10.2131  11.0173  11.4804  12.1939  12.5133  13.4289  14.2029
    14.5475  15.1520  16.3052  17.5461

     the Fermi energy is    12.6532 ev

!    total energy              =    -111.58472231 Ry
     estimated scf accuracy    <          3.7E-10 Ry
     smearing contrib. (-TS)   =       0.00037926 Ry
     internal energy E=F+TS    =    -111.58510156 Ry

     The total energy is F=E-TS. E is the sum of the following terms:
     one-electron contribution =      12.27419471 Ry
     hartree contribution      =      13.92182083 Ry
     xc contribution           =     -52.92137135 Ry
     ewald contribution        =     -84.85974576 Ry

     total magnetization       =     5.34 Bohr mag/cell
     absolute magnetization    =     5.60 Bohr mag/cell

     convergence has been achieved in  14 iterations

     Forces acting on atoms (cartesian axes, Ry/au):

     atom    1 type  1   force =     0.00000000    0.00000033    0.00000000
     atom    2 type  1   force =    -0.00000000   -0.00000033   -0.00000000

     Total force =     0.000000     Total SCF correction =     0.000000
     SCF correction compared to forces is large: reduce conv_thr to get better values


     Computing stress (Cartesian axis) and pressure

          total   stress  (Ry/bohr**3)                   (kbar)     P=       -1.04
  -0.00001216  -0.00000000   0.00000000           -1.79       -0.00        0.00
  -0.00000000  -0.00001216   0.00000000           -0.00       -1.79        0.00
   0.00000000   0.00000000   0.00000308            0.00        0.00        0.45

     Message from routine punch:
     Nothing written, as per user request (disk_io='none')

     init_run     :      0.80s CPU      0.85s WALL (       2 calls)
     electrons    :     27.76s CPU     30.73s WALL (       8 calls)
     update_pot   :      0.10s CPU      0.10s WALL (       6 calls)
     forces       :      0.52s CPU      0.53s WALL (       8 calls)
     stress       :      2.65s CPU      2.67s WALL (       8 calls)

     Called by init_run:
     wfcinit      :      0.18s CPU      0.20s WALL (       2 calls)
     potinit      :      0.16s CPU      0.17s WALL (       2 calls)
     hinit0       :      0.38s CPU      0.40s WALL (       2 calls)

     Called by electrons:
     c_bands      :     19.47s CPU     21.96s WALL (      72 calls)
     sum_band     :      5.50s CPU      5.93s WALL (      72 calls)
     v_of_rho     :      1.18s CPU      1.21s WALL (      78 calls)
     newd         :      1.73s CPU      1.76s WALL (      78 calls)
     mix_rho      :      0.09s CPU      0.09s WALL (      72 calls)

     Called by c_bands:
     init_us_2    :      0.47s CPU      0.52s WALL (    8424 calls)
     cegterg      :     18.15s CPU     20.49s WALL (    3744 calls)

     Called by *egterg:
     cdiaghg      :      1.71s CPU      1.93s WALL (   15015 calls)
     h_psi        :     14.71s CPU     16.60s WALL (   15535 calls)
     s_psi        :      0.29s CPU      0.34s WALL (   15535 calls)
     g_psi        :      0.09s CPU      0.10s WALL (   11687 calls)

     Called by h_psi:
     h_psi:calbec :      0.54s CPU      0.61s WALL (   15535 calls)
     vloc_psi     :     13.75s CPU     15.52s WALL (   15535 calls)
     add_vuspsi   :      0.31s CPU      0.36s WALL (   15535 calls)

     General routines
     calbec       :      0.90s CPU      1.00s WALL (   26351 calls)
     fft          :      0.65s CPU      0.67s WALL (    2264 calls)
     ffts         :      0.13s CPU      0.13s WALL (     300 calls)
     fftw         :     14.04s CPU     15.88s WALL (  310336 calls)
     interpolate  :      0.15s CPU      0.16s WALL (     156 calls)

     Parallel routines

     PWSCF        :     32.10s CPU     35.15s WALL


   This run was terminated on:  17:53: 3  20Oct2025            

=------------------------------------------------------------------------------=
   JOB DONE.
=------------------------------------------------------------------------------=
