
     Program PWSCF v.7.4.1 starts on 21Oct2025 at 12:59:42 

     This program is part of the open-source Quantum ESPRESSO suite
     for quantum simulation of materials; please cite
         "P. Giannozzi et al., J. Phys.:Condens. Matter 21 395502 (2009);
         "P. Giannozzi et al., J. Phys.:Condens. Matter 29 465901 (2017);
         "P. Giannozzi et al., J. Chem. Phys. 152 154105 (2020);
          URL http://www.quantum-espresso.org", 
     in publications or presentations arising from this work. More details at
     http://www.quantum-espresso.org/quote

     Parallel version (MPI), running on     2 processors

     MPI processes distributed on     1 nodes
     815 MiB available memory on the printing compute node when the environment starts

     Waiting for input...
     Reading input from standard input
Warning: card &CELL ignored
Warning: card / ignored

     Current dimensions of program PWSCF are:
     Max number of different atomic species (ntypx) = 10
     Max number of k-points (npk) =  40000
     Max angular momentum in pseudopotentials (lmaxx) =  4
     file O.pz-rrkjus.UPF: wavefunction(s)  2S renormalized
     Message from routine setup:
     using ibrav=0 with symmetry is DISCOURAGED, use correct ibrav instead

     R & G space division:  proc/nbgrp/npool/nimage =       2
     Subspace diagonalization in iterative solution of the eigenvalue problem:
     a serial algorithm will be used


     Parallelization info
     --------------------
     sticks:   dense  smooth     PW     G-vecs:    dense   smooth      PW
     Min         516     254     74                12286     4354     709
     Max         517     255     75                12287     4355     710
     Sum        1033     509    149                24573     8709    1419

     Using Slab Decomposition



     bravais-lattice index     =            0
     lattice parameter (alat)  =       7.3227  a.u.
     unit-cell volume          =     392.6555 (a.u.)^3
     number of atoms/cell      =            5
     number of atomic types    =            3
     number of electrons       =        44.00
     number of Kohn-Sham states=           22
     kinetic-energy cutoff     =      30.0000  Ry
     charge density cutoff     =     240.0000  Ry
     scf convergence threshold =      1.0E-07
     mixing beta               =       0.7000
     number of iterations used =            8  plain     mixing
     energy convergence thresh.=      1.0E-04
     force convergence thresh. =      1.0E-03
     Exchange-correlation= SLA  PZ   NOGX NOGC
                           (   1   1   0   0   0   0   0)
     nstep                     =           50


     celldm(1)=   7.322689  celldm(2)=   0.000000  celldm(3)=   0.000000
     celldm(4)=   0.000000  celldm(5)=   0.000000  celldm(6)=   0.000000

     crystal axes: (cart. coord. in units of alat)
               a(1) = (   1.000000   0.000000   0.000000 )  
               a(2) = (   0.000000   1.000000   0.000000 )  
               a(3) = (   0.000000   0.000000   1.000000 )  

     reciprocal axes: (cart. coord. in units 2 pi/alat)
               b(1) = (  1.000000  0.000000  0.000000 )  
               b(2) = (  0.000000  1.000000  0.000000 )  
               b(3) = (  0.000000  0.000000  1.000000 )  


     PseudoPot. # 1 for O  read from file:
     /home/bond/Software/QE/qe-7.4.1/pseudo/O.pz-rrkjus.UPF
     MD5 check sum: 24fb942a68ef5d262e498166c462ef4a
     Pseudo is Ultrasoft, Zval =  6.0
     Generated by new atomic code, or converted to UPF format
     Using radial grid of 1269 points,  4 beta functions with: 
                l(1) =   0
                l(2) =   0
                l(3) =   1
                l(4) =   1
     Q(r) pseudized with 0 coefficients 


     PseudoPot. # 2 for Pb read from file:
     /home/bond/Software/QE/qe-7.4.1/pseudo/Pb.pz-d-van.UPF
     MD5 check sum: 4e1e5920686a026ae26139ac417581ff
     Pseudo is Ultrasoft, Zval = 14.0
     Generated by new atomic code, or converted to UPF format
     Using radial grid of  899 points,  6 beta functions with: 
                l(1) =   0
                l(2) =   0
                l(3) =   1
                l(4) =   1
                l(5) =   2
                l(6) =   2
     Q(r) pseudized with  8 coefficients,  rinner =    1.000   1.000   1.000
                                                       1.000   1.000

     PseudoPot. # 3 for Ti read from file:
     /home/bond/Software/QE/qe-7.4.1/pseudo/Ti.pz-sp-van_ak.UPF
     MD5 check sum: 545d0e6e05332b8871a8093f427cb0ca
     Pseudo is Ultrasoft, Zval = 12.0
     Generated by new atomic code, or converted to UPF format
     Using radial grid of  851 points,  6 beta functions with: 
                l(1) =   0
                l(2) =   0
                l(3) =   1
                l(4) =   1
                l(5) =   2
                l(6) =   2
     Q(r) pseudized with  8 coefficients,  rinner =    1.000   1.000   1.000
                                                       1.000   1.000

     atomic species   valence    mass     pseudopotential
     O                 6.00    15.99900     O ( 1.00)
     Pb               14.00   207.20000     Pb( 1.00)
     Ti               12.00    47.86700     Ti( 1.00)

      8 Sym. Ops. (no inversion) found



   Cartesian axes

     site n.     atom                  positions (alat units)
         1        Pb     tau(   1) = (   0.0000000   0.0000000   0.0000000  )
         2        Ti     tau(   2) = (   0.5000000   0.5000000   0.4900000  )
         3        O      tau(   3) = (   0.0000000   0.5000000   0.5000000  )
         4        O      tau(   4) = (   0.5000000   0.0000000   0.5000000  )
         5        O      tau(   5) = (   0.5000000   0.5000000   0.0000000  )

     number of k points=     6
                       cart. coord. in units 2pi/alat
        k(    1) = (   0.1250000   0.1250000   0.1250000), wk =   0.2500000
        k(    2) = (   0.1250000   0.1250000   0.3750000), wk =   0.2500000
        k(    3) = (   0.1250000   0.3750000   0.3750000), wk =   0.5000000
        k(    4) = (   0.3750000   0.3750000   0.3750000), wk =   0.2500000
        k(    5) = (   0.3750000  -0.1250000   0.1250000), wk =   0.5000000
        k(    6) = (   0.3750000  -0.3750000   0.1250000), wk =   0.2500000

     Dense  grid:    24573 G-vectors     FFT dimensions: (  40,  40,  40)

     Smooth grid:     8709 G-vectors     FFT dimensions: (  25,  25,  25)

     Estimated max dynamical RAM per process >      51.19 MB

     Estimated total dynamical RAM >     102.38 MB

     Initial potential from superposition of free atoms

     starting charge      42.9982, renormalised to      44.0000
     Starting wfcs are   31 randomized atomic wfcs

     total cpu time spent up to now is        1.9 secs

     Self-consistent Calculation

     iteration #  1     ecut=    30.00 Ry     beta= 0.70
     Davidson diagonalization with overlap
     ethr =  1.00E-02,  avg # of iterations =  2.0

     total cpu time spent up to now is        2.3 secs

     total energy              =    -332.61988805 Ry
     estimated scf accuracy    <       1.09725361 Ry

     iteration #  2     ecut=    30.00 Ry     beta= 0.70
     Davidson diagonalization with overlap
     ethr =  2.49E-03,  avg # of iterations =  6.5

     total cpu time spent up to now is        2.8 secs

     total energy              =    -332.38644628 Ry
     estimated scf accuracy    <       4.14504483 Ry

     iteration #  3     ecut=    30.00 Ry     beta= 0.70
     Davidson diagonalization with overlap
     ethr =  2.49E-03,  avg # of iterations =  5.3

     total cpu time spent up to now is        3.3 secs

     total energy              =    -333.15940350 Ry
     estimated scf accuracy    <       0.21745721 Ry

     iteration #  4     ecut=    30.00 Ry     beta= 0.70
     Davidson diagonalization with overlap
     ethr =  4.94E-04,  avg # of iterations =  2.0

     total cpu time spent up to now is        3.7 secs

     total energy              =    -333.15626662 Ry
     estimated scf accuracy    <       0.05942514 Ry

     iteration #  5     ecut=    30.00 Ry     beta= 0.70
     Davidson diagonalization with overlap
     ethr =  1.35E-04,  avg # of iterations =  4.8

     total cpu time spent up to now is        4.1 secs

     total energy              =    -333.18299977 Ry
     estimated scf accuracy    <       0.02265937 Ry

     iteration #  6     ecut=    30.00 Ry     beta= 0.70
     Davidson diagonalization with overlap
     ethr =  5.15E-05,  avg # of iterations =  2.3

     total cpu time spent up to now is        4.4 secs

     total energy              =    -333.18212426 Ry
     estimated scf accuracy    <       0.00711629 Ry

     iteration #  7     ecut=    30.00 Ry     beta= 0.70
     Davidson diagonalization with overlap
     ethr =  1.62E-05,  avg # of iterations =  4.3

     total cpu time spent up to now is        4.8 secs

     total energy              =    -333.18442375 Ry
     estimated scf accuracy    <       0.00038389 Ry

     iteration #  8     ecut=    30.00 Ry     beta= 0.70
     Davidson diagonalization with overlap
     ethr =  8.72E-07,  avg # of iterations =  2.7

     total cpu time spent up to now is        5.2 secs

     total energy              =    -333.18435901 Ry
     estimated scf accuracy    <       0.00037783 Ry

     iteration #  9     ecut=    30.00 Ry     beta= 0.70
     Davidson diagonalization with overlap
     ethr =  8.59E-07,  avg # of iterations =  3.0

     total cpu time spent up to now is        5.6 secs

     total energy              =    -333.18436406 Ry
     estimated scf accuracy    <       0.00009742 Ry

     iteration # 10     ecut=    30.00 Ry     beta= 0.70
     Davidson diagonalization with overlap
     ethr =  2.21E-07,  avg # of iterations =  4.5

     total cpu time spent up to now is        6.0 secs

     total energy              =    -333.18439093 Ry
     estimated scf accuracy    <       0.00000217 Ry

     iteration # 11     ecut=    30.00 Ry     beta= 0.70
     Davidson diagonalization with overlap
     ethr =  4.93E-09,  avg # of iterations =  5.5

     total cpu time spent up to now is        6.5 secs

     total energy              =    -333.18439165 Ry
     estimated scf accuracy    <       0.00000646 Ry

     iteration # 12     ecut=    30.00 Ry     beta= 0.70
     Davidson diagonalization with overlap
     ethr =  4.93E-09,  avg # of iterations =  1.5

     total cpu time spent up to now is        6.8 secs

     total energy              =    -333.18439096 Ry
     estimated scf accuracy    <       0.00000400 Ry

     iteration # 13     ecut=    30.00 Ry     beta= 0.70
     Davidson diagonalization with overlap
     ethr =  4.93E-09,  avg # of iterations =  4.3

     total cpu time spent up to now is        7.2 secs

     End of self-consistent calculation

          k = 0.1250 0.1250 0.1250 (  1090 PWs)   bands (ev):

   -44.6498 -21.2631 -21.2574 -21.2565  -6.3269  -5.2539  -5.2468  -3.9529
    -3.9523  -3.9387  -3.7711  -3.7704   4.6684   7.3133   7.3166   8.0941
     9.1436   9.1524   9.9024   9.9434   9.9885  10.1334

          k = 0.1250 0.1250 0.3750 (  1095 PWs)   bands (ev):

   -44.6486 -21.3209 -21.2553 -21.2543  -5.9137  -5.1262  -5.0824  -4.0145
    -3.9480  -3.9354  -3.8690  -3.7399   3.9307   6.8443   7.3381   7.8618
     8.4664   8.7458   9.4040   9.9555  10.1309  10.8853

          k = 0.1250 0.3750 0.3750 (  1087 PWs)   bands (ev):

   -44.6473 -21.3174 -21.3112 -21.2527  -5.6981  -5.0003  -4.9305  -3.9878
    -3.9439  -3.8900  -3.8005  -3.6492   3.5615   6.7943   6.8706   7.1960
     7.5053   8.6907   9.4613   9.4946  10.0566  10.7373

          k = 0.3750 0.3750 0.3750 (  1082 PWs)   bands (ev):

   -44.6461 -21.3148 -21.3088 -21.3086  -5.2976  -5.1275  -5.1219  -3.8991
    -3.8982  -3.6088  -3.5427  -3.5402   4.1810   5.9518   5.9575   6.7224
     7.0426   7.0468   7.9961  10.6905  10.6987  10.7706

          k = 0.3750-0.1250 0.1250 (  1095 PWs)   bands (ev):

   -44.6486 -21.3148 -21.2609 -21.2548  -5.9182  -5.1320  -5.0741  -4.0141
    -3.9476  -3.9355  -3.8698  -3.7392   3.9335   6.8506   7.3506   7.8610
     8.4611   8.7613   9.3916   9.9568  10.1160  10.8780

          k = 0.3750-0.3750 0.1250 (  1087 PWs)   bands (ev):

   -44.6473 -21.3117 -21.3108 -21.2587  -5.7070  -4.9963  -4.9258  -3.9870
    -3.9437  -3.8891  -3.8002  -3.6523   3.5640   6.8231   6.8505   7.1924
     7.5011   8.6869   9.4683   9.4961  10.0535  10.7462

     highest occupied level (ev):    10.8853

!    total energy              =    -333.18439168 Ry
     estimated scf accuracy    <       0.00000001 Ry

     The total energy is the sum of the following terms:
     one-electron contribution =     -76.46461148 Ry
     hartree contribution      =      66.22474750 Ry
     xc contribution           =     -49.64914445 Ry
     ewald contribution        =    -273.29538325 Ry

     convergence has been achieved in  13 iterations

     Forces acting on atoms (cartesian axes, Ry/au):

     atom    1 type  2   force =     0.00000000    0.00000000   -0.00433988
     atom    2 type  3   force =     0.00000000    0.00000000    0.00548149
     atom    3 type  1   force =     0.00000000    0.00000000    0.00018466
     atom    4 type  1   force =     0.00000000    0.00000000    0.00018466
     atom    5 type  1   force =     0.00000000    0.00000000   -0.00151092

     Total force =     0.001533     Total SCF correction =     0.000007


     Computing stress (Cartesian axis) and pressure

          total   stress  (Ry/bohr**3)                   (kbar)     P=      -13.97
  -0.00009992   0.00000000   0.00000000          -14.70        0.00        0.00
   0.00000000  -0.00009992   0.00000000            0.00      -14.70        0.00
   0.00000000   0.00000000  -0.00008498            0.00        0.00      -12.50


     BFGS Geometry Optimization
     Energy error            =      2.4E-06 Ry
     Gradient error          =      1.5E-03 Ry/Bohr

     number of scf cycles    =   1
     number of bfgs steps    =   0

     energy             new  =    -333.1843916796 Ry

     new trust radius        =       0.0015109175 bohr
     new conv_thr            =       0.0000001000 Ry


ATOMIC_POSITIONS (angstrom)
Pb               0.0000000000        0.0000000000        0.0000000000    0   0   0
Ti               1.9375000000        1.9375000000        1.8987500000    0   0   0
O                0.0000000000        1.9375000000        1.9375977158
O                1.9375000000        0.0000000000        1.9375977158
O                1.9375000000        1.9375000000       -0.0007995431


     Message from routine punch:
     Nothing written, as per user request (disk_io='none')
     NEW-OLD atomic charge density approx. for the potential

     total cpu time spent up to now is        8.7 secs

     Self-consistent Calculation

     iteration #  1     ecut=    30.00 Ry     beta= 0.70
     Davidson diagonalization with overlap
     ethr =  1.00E-06,  avg # of iterations =  2.0

     Threshold (ethr) on eigenvalues was too large:
     Diagonalizing with lowered threshold

     Davidson diagonalization with overlap
     ethr =  5.66E-10,  avg # of iterations =  6.5

     total cpu time spent up to now is        9.4 secs

     total energy              =    -333.18439308 Ry
     estimated scf accuracy    <       0.00000067 Ry

     iteration #  2     ecut=    30.00 Ry     beta= 0.70
     Davidson diagonalization with overlap
     ethr =  1.52E-09,  avg # of iterations =  5.7

     total cpu time spent up to now is        9.9 secs

     total energy              =    -333.18439305 Ry
     estimated scf accuracy    <       0.00000134 Ry

     iteration #  3     ecut=    30.00 Ry     beta= 0.70
     Davidson diagonalization with overlap
     ethr =  1.52E-09,  avg # of iterations =  4.3

     total cpu time spent up to now is       10.3 secs

     End of self-consistent calculation

          k = 0.1250 0.1250 0.1250 (  1090 PWs)   bands (ev):

   -44.6493 -21.2625 -21.2570 -21.2560  -6.3271  -5.2539  -5.2471  -3.9529
    -3.9523  -3.9387  -3.7711  -3.7704   4.6684   7.3132   7.3164   8.0940
     9.1437   9.1524   9.9022   9.9440   9.9883  10.1331

          k = 0.1250 0.1250 0.3750 (  1095 PWs)   bands (ev):

   -44.6481 -21.3203 -21.2549 -21.2539  -5.9140  -5.1264  -5.0824  -4.0145
    -3.9480  -3.9354  -3.8690  -3.7398   3.9308   6.8443   7.3381   7.8615
     8.4664   8.7461   9.4038   9.9554  10.1306  10.8851

          k = 0.1250 0.3750 0.3750 (  1087 PWs)   bands (ev):

   -44.6468 -21.3167 -21.3108 -21.2523  -5.6983  -5.0004  -4.9306  -3.9877
    -3.9439  -3.8900  -3.8005  -3.6493   3.5616   6.7946   6.8703   7.1959
     7.5052   8.6906   9.4613   9.4945  10.0566  10.7372

          k = 0.3750 0.3750 0.3750 (  1082 PWs)   bands (ev):

   -44.6456 -21.3142 -21.3084 -21.3082  -5.2978  -5.1275  -5.1221  -3.8991
    -3.8982  -3.6088  -3.5427  -3.5402   4.1810   5.9519   5.9574   6.7222
     7.0427   7.0467   7.9962  10.6905  10.6985  10.7705

          k = 0.3750-0.1250 0.1250 (  1095 PWs)   bands (ev):

   -44.6481 -21.3144 -21.2602 -21.2544  -5.9184  -5.1321  -5.0743  -4.0141
    -3.9476  -3.9355  -3.8698  -3.7392   3.9335   6.8505   7.3506   7.8609
     8.4610   8.7612   9.3918   9.9566  10.1160  10.8780

          k = 0.3750-0.3750 0.1250 (  1087 PWs)   bands (ev):

   -44.6468 -21.3113 -21.3104 -21.2580  -5.7070  -4.9965  -4.9261  -3.9870
    -3.9437  -3.8891  -3.8002  -3.6522   3.5640   6.8229   6.8504   7.1925
     7.5013   8.6868   9.4683   9.4959  10.0535  10.7459

     highest occupied level (ev):    10.8851

!    total energy              =    -333.18439330 Ry
     estimated scf accuracy    <       0.00000008 Ry

     The total energy is the sum of the following terms:
     one-electron contribution =     -76.46079734 Ry
     hartree contribution      =      66.22238562 Ry
     xc contribution           =     -49.64911589 Ry
     ewald contribution        =    -273.29686568 Ry

     convergence has been achieved in   3 iterations

     Forces acting on atoms (cartesian axes, Ry/au):

     atom    1 type  2   force =     0.00000000    0.00000000   -0.00451018
     atom    2 type  3   force =     0.00000000    0.00000000    0.00549494
     atom    3 type  1   force =     0.00000000    0.00000000    0.00006914
     atom    4 type  1   force =     0.00000000    0.00000000    0.00006914
     atom    5 type  1   force =     0.00000000    0.00000000   -0.00112305

     Total force =     0.001127     Total SCF correction =     0.000283
     SCF correction compared to forces is large: reduce conv_thr to get better values


     Computing stress (Cartesian axis) and pressure

          total   stress  (Ry/bohr**3)                   (kbar)     P=      -14.61
  -0.00010408   0.00000000   0.00000000          -15.31        0.00        0.00
   0.00000000  -0.00010408   0.00000000            0.00      -15.31        0.00
   0.00000000   0.00000000  -0.00008978            0.00        0.00      -13.21

     Energy error            =      1.6E-06 Ry
     Gradient error          =      1.1E-03 Ry/Bohr

     number of scf cycles    =   2
     number of bfgs steps    =   1

     energy             old  =    -333.1843916796 Ry
     energy             new  =    -333.1843932962 Ry

     CASE: energy            _new < energy            _old

     new trust radius        =       0.0016620092 bohr
     new conv_thr            =       0.0000000010 Ry


ATOMIC_POSITIONS (angstrom)
Pb               0.0000000000        0.0000000000        0.0000000000    0   0   0
Ti               1.9375000000        1.9375000000        1.8987500000    0   0   0
O                0.0000000000        1.9375000000        1.9376528739
O                1.9375000000        0.0000000000        1.9376528739
O                1.9375000000        1.9375000000       -0.0016790405


     Message from routine punch:
     Nothing written, as per user request (disk_io='none')
     NEW-OLD atomic charge density approx. for the potential

     total cpu time spent up to now is       11.8 secs

     Self-consistent Calculation

     iteration #  1     ecut=    30.00 Ry     beta= 0.70
     Davidson diagonalization with overlap
     ethr =  1.00E-06,  avg # of iterations =  2.0

     Threshold (ethr) on eigenvalues was too large:
     Diagonalizing with lowered threshold

     Davidson diagonalization with overlap
     ethr =  9.96E-10,  avg # of iterations =  6.0

     total cpu time spent up to now is       12.5 secs

     total energy              =    -333.18439429 Ry
     estimated scf accuracy    <       0.00000115 Ry

     iteration #  2     ecut=    30.00 Ry     beta= 0.70
     Davidson diagonalization with overlap
     ethr =  2.62E-09,  avg # of iterations =  5.7

     total cpu time spent up to now is       13.0 secs

     total energy              =    -333.18439421 Ry
     estimated scf accuracy    <       0.00000310 Ry

     iteration #  3     ecut=    30.00 Ry     beta= 0.70
     Davidson diagonalization with overlap
     ethr =  2.62E-09,  avg # of iterations =  4.5

     total cpu time spent up to now is       13.4 secs

     total energy              =    -333.18439479 Ry
     estimated scf accuracy    <       0.00000006 Ry

     iteration #  4     ecut=    30.00 Ry     beta= 0.70
     Davidson diagonalization with overlap
     ethr =  1.37E-10,  avg # of iterations =  3.0

     total cpu time spent up to now is       13.8 secs

     total energy              =    -333.18439480 Ry
     estimated scf accuracy    <          9.8E-09 Ry

     iteration #  5     ecut=    30.00 Ry     beta= 0.70
     Davidson diagonalization with overlap
     ethr =  2.22E-11,  avg # of iterations =  5.0

     total cpu time spent up to now is       14.2 secs

     total energy              =    -333.18439481 Ry
     estimated scf accuracy    <          2.3E-09 Ry

     iteration #  6     ecut=    30.00 Ry     beta= 0.70
     Davidson diagonalization with overlap
     ethr =  5.21E-12,  avg # of iterations =  2.3

     total cpu time spent up to now is       14.6 secs

     End of self-consistent calculation

          k = 0.1250 0.1250 0.1250 (  1090 PWs)   bands (ev):

   -44.6505 -21.2633 -21.2581 -21.2572  -6.3268  -5.2535  -5.2469  -3.9528
    -3.9523  -3.9387  -3.7710  -3.7703   4.6685   7.3134   7.3165   8.0941
     9.1443   9.1529   9.9027   9.9452   9.9885  10.1332

          k = 0.1250 0.1250 0.3750 (  1095 PWs)   bands (ev):

   -44.6493 -21.3211 -21.2560 -21.2551  -5.9138  -5.1262  -5.0819  -4.0144
    -3.9479  -3.9354  -3.8689  -3.7398   3.9311   6.8444   7.3385   7.8615
     8.4667   8.7467   9.4041   9.9558  10.1308  10.8854

          k = 0.1250 0.3750 0.3750 (  1087 PWs)   bands (ev):

   -44.6480 -21.3176 -21.3119 -21.2534  -5.6981  -5.0001  -4.9303  -3.9877
    -3.9438  -3.8899  -3.8004  -3.6492   3.5617   6.7952   6.8700   7.1960
     7.5053   8.6907   9.4618   9.4949  10.0569  10.7378

          k = 0.3750 0.3750 0.3750 (  1082 PWs)   bands (ev):

   -44.6467 -21.3150 -21.3095 -21.3093  -5.2975  -5.1272  -5.1220  -3.8990
    -3.8982  -3.6088  -3.5425  -3.5402   4.1812   5.9522   5.9575   6.7223
     7.0428   7.0466   7.9964  10.6911  10.6989  10.7709

          k = 0.3750-0.1250 0.1250 (  1095 PWs)   bands (ev):

   -44.6493 -21.3155 -21.2611 -21.2555  -5.9181  -5.1317  -5.0741  -4.0141
    -3.9476  -3.9355  -3.8698  -3.7391   3.9337   6.8505   7.3508   7.8611
     8.4613   8.7614   9.3924   9.9571  10.1166  10.8784

          k = 0.3750-0.3750 0.1250 (  1087 PWs)   bands (ev):

   -44.6480 -21.3124 -21.3115 -21.2589  -5.7065  -4.9963  -4.9259  -3.9870
    -3.9436  -3.8891  -3.8001  -3.6521   3.5641   6.8230   6.8504   7.1929
     7.5017   8.6871   9.4686   9.4961  10.0537  10.7462

     highest occupied level (ev):    10.8854

!    total energy              =    -333.18439481 Ry
     estimated scf accuracy    <          7.6E-10 Ry

     The total energy is the sum of the following terms:
     one-electron contribution =     -76.45787344 Ry
     hartree contribution      =      66.22075282 Ry
     xc contribution           =     -49.64887285 Ry
     ewald contribution        =    -273.29840133 Ry

     convergence has been achieved in   6 iterations

     Forces acting on atoms (cartesian axes, Ry/au):

     atom    1 type  2   force =     0.00000000    0.00000000   -0.00439804
     atom    2 type  3   force =     0.00000000    0.00000000    0.00539073
     atom    3 type  1   force =     0.00000000    0.00000000   -0.00015850
     atom    4 type  1   force =     0.00000000    0.00000000   -0.00015850
     atom    5 type  1   force =     0.00000000    0.00000000   -0.00067569

     Total force =     0.000712     Total SCF correction =     0.000026


     Computing stress (Cartesian axis) and pressure

          total   stress  (Ry/bohr**3)                   (kbar)     P=      -14.38
  -0.00010225   0.00000000   0.00000000          -15.04        0.00        0.00
   0.00000000  -0.00010225   0.00000000            0.00      -15.04        0.00
   0.00000000   0.00000000  -0.00008871            0.00        0.00      -13.05

     Energy error            =      1.5E-06 Ry
     Gradient error          =      6.8E-04 Ry/Bohr

     bfgs converged in   3 scf cycles and   2 bfgs steps
     (criteria: energy <  1.0E-04 Ry, force <  1.0E-03 Ry/Bohr)

     End of BFGS Geometry Optimization

     Final energy             =    -333.1843948051 Ry

     File /home/bond/Work/Lab4/Problem2/PbTiO3_a_3.875_ecut_30_nk_4_displ_-0.01/pwscf.bfgs deleted, as requested
Begin final coordinates

ATOMIC_POSITIONS (angstrom)
Pb               0.0000000000        0.0000000000        0.0000000000    0   0   0
Ti               1.9375000000        1.9375000000        1.8987500000    0   0   0
O                0.0000000000        1.9375000000        1.9376528739
O                1.9375000000        0.0000000000        1.9376528739
O                1.9375000000        1.9375000000       -0.0016790405
End final coordinates


     Message from routine punch:
     Nothing written, as per user request (disk_io='none')

     init_run     :      1.24s CPU      1.49s WALL (       1 calls)
     electrons    :      8.45s CPU      9.71s WALL (       3 calls)
     update_pot   :      0.01s CPU      0.01s WALL (       2 calls)
     forces       :      0.38s CPU      0.45s WALL (       3 calls)
     stress       :      3.48s CPU      3.66s WALL (       3 calls)

     Called by init_run:
     wfcinit      :      0.08s CPU      0.10s WALL (       1 calls)
     potinit      :      0.10s CPU      0.10s WALL (       1 calls)
     hinit0       :      0.83s CPU      1.01s WALL (       1 calls)

     Called by electrons:
     c_bands      :      3.64s CPU      3.88s WALL (      24 calls)
     sum_band     :      2.77s CPU      3.33s WALL (      24 calls)
     v_of_rho     :      0.07s CPU      0.07s WALL (      25 calls)
     newd         :      2.24s CPU      2.75s WALL (      25 calls)
     mix_rho      :      0.04s CPU      0.04s WALL (      24 calls)

     Called by c_bands:
     init_us_2    :      0.12s CPU      0.13s WALL (     330 calls)
     cegterg      :      3.40s CPU      3.62s WALL (     144 calls)

     Called by *egterg:
     cdiaghg      :      0.44s CPU      0.48s WALL (     695 calls)
     h_psi        :      2.38s CPU      2.54s WALL (     725 calls)
     s_psi        :      0.10s CPU      0.11s WALL (     725 calls)
     g_psi        :      0.02s CPU      0.02s WALL (     575 calls)

     Called by h_psi:
     h_psi:calbec :      0.18s CPU      0.19s WALL (     725 calls)
     vloc_psi     :      2.07s CPU      2.21s WALL (     725 calls)
     add_vuspsi   :      0.11s CPU      0.12s WALL (     725 calls)

     General routines
     calbec       :      0.32s CPU      0.34s WALL (    1175 calls)
     fft          :      0.32s CPU      0.32s WALL (     163 calls)
     ffts         :      0.05s CPU      0.05s WALL (      49 calls)
     fftw         :      1.91s CPU      2.04s WALL (   22154 calls)
     interpolate  :      0.06s CPU      0.06s WALL (      25 calls)

     Parallel routines

     PWSCF        :     14.16s CPU     15.99s WALL


   This run was terminated on:  12:59:58  21Oct2025            

=------------------------------------------------------------------------------=
   JOB DONE.
=------------------------------------------------------------------------------=
