LAMMPS (22 Jul 2025 - Update 1)
Reading data file ...
  orthogonal box = (0 0 0) to (8.7451919 7.5735584 11.140419)
  1 by 1 by 1 MPI processor grid
  reading atoms ...
  36 atoms
  read_data CPU = 0.001 seconds
WARNING: No fixes with time integration, atoms won't move
For more information see https://docs.lammps.org/err0028 (../verlet.cpp:60)
Generated 0 of 0 mixed pair_coeff terms from geometric mixing rule
Neighbor list info ...
  update: every = 1 steps, delay = 0 steps, check = yes
  max neighbors/atom: 2000, page size: 100000
  master list distance cutoff = 6.5
  ghost atom cutoff = 6.5
  binsize = 3.25, bins = 3 3 4
  1 neighbor lists, perpetual/occasional/extra = 1 0 0
  (1) pair lj/cut, perpetual
      attributes: half, newton on
      pair build: half/bin/atomonly/newton
      stencil: half/bin/3d
      bin: standard
Setting up Verlet run ...
  Unit style    : metal
  Current step  : 0
  Time step     : 0.001
Per MPI rank memory allocation (min/avg/max) = 3.052 | 3.052 | 3.052 Mbytes
   Step         PotEng           Lx             Ly             Lz           Press           Pxx            Pyy            Pzz      
         0  -67.508387      8.7451919      7.5735584      11.140419      165756.1      -25528.669      442118.94      80678.026    
Loop time of 1.393e-06 on 1 procs for 0 steps with 36 atoms

71.8% CPU use with 1 MPI tasks x no OpenMP threads

MPI task timing breakdown:
Section |  min time  |  avg time  |  max time  |%varavg| %total
---------------------------------------------------------------
Pair    | 0          | 0          | 0          |   0.0 |  0.00
Neigh   | 0          | 0          | 0          |   0.0 |  0.00
Comm    | 0          | 0          | 0          |   0.0 |  0.00
Output  | 0          | 0          | 0          |   0.0 |  0.00
Modify  | 0          | 0          | 0          |   0.0 |  0.00
Other   |            | 1.393e-06  |            |       |100.00

Nlocal:             36 ave          36 max          36 min
Histogram: 1 0 0 0 0 0 0 0 0 0
Nghost:            206 ave         206 max         206 min
Histogram: 1 0 0 0 0 0 0 0 0 0
Neighs:            819 ave         819 max         819 min
Histogram: 1 0 0 0 0 0 0 0 0 0

Total # of neighbors = 819
Ave neighs/atom = 22.75
Neighbor list builds = 0
Dangerous builds = 0
Generated 0 of 0 mixed pair_coeff terms from geometric mixing rule
Setting up cg style minimization ...
  Unit style    : metal
  Current step  : 0
WARNING: Energy due to 3 extra global DOFs will be included in minimizer energies
 (../min.cpp:222)
Per MPI rank memory allocation (min/avg/max) = 4.177 | 4.177 | 4.177 Mbytes
   Step         PotEng           Lx             Ly             Lz           Press           Pxx            Pyy            Pzz      
         0  -67.508387      8.7451919      7.5735584      11.140419      165756.1      -25528.669      442118.94      80678.026    
        50  -71.952735      9.0744963      7.8587443      11.140419      14633.314     -111299.12      126507.2       28691.866    
Loop time of 0.00367088 on 1 procs for 50 steps with 36 atoms

99.0% CPU use with 1 MPI tasks x no OpenMP threads

Minimization stats:
  Stopping criterion = linesearch alpha is zero
  Energy initial, next-to-last, final = 
     -67.5083866180268   -71.952734818482   -71.952734818482
  Force two-norm initial, final = 140.80626 23.185038
  Force max component initial, final = 95.926729 5.42756
  Final line search alpha, max atom move = 1.6402958e-11 8.9028037e-11
  Iterations, force evaluations = 50 202

MPI task timing breakdown:
Section |  min time  |  avg time  |  max time  |%varavg| %total
---------------------------------------------------------------
Pair    | 0.0022334  | 0.0022334  | 0.0022334  |   0.0 | 60.84
Neigh   | 0          | 0          | 0          |   0.0 |  0.00
Comm    | 0.0002073  | 0.0002073  | 0.0002073  |   0.0 |  5.65
Output  | 0          | 0          | 0          |   0.0 |  0.00
Modify  | 0          | 0          | 0          |   0.0 |  0.00
Other   |            | 0.00123    |            |       | 33.51

Nlocal:             36 ave          36 max          36 min
Histogram: 1 0 0 0 0 0 0 0 0 0
Nghost:            206 ave         206 max         206 min
Histogram: 1 0 0 0 0 0 0 0 0 0
Neighs:            819 ave         819 max         819 min
Histogram: 1 0 0 0 0 0 0 0 0 0

Total # of neighbors = 819
Ave neighs/atom = 22.75
Neighbor list builds = 0
Dangerous builds = 0
Total energy (eV) = -71.952734818482
Number of atoms = 36
Lattice constant (Angstoms) = 9.07449628303303
Total wall time: 0:00:00
