
     Program PWSCF v.7.4.1 starts on 20Oct2025 at 17:54:10 

     This program is part of the open-source Quantum ESPRESSO suite
     for quantum simulation of materials; please cite
         "P. Giannozzi et al., J. Phys.:Condens. Matter 21 395502 (2009);
         "P. Giannozzi et al., J. Phys.:Condens. Matter 29 465901 (2017);
         "P. Giannozzi et al., J. Chem. Phys. 152 154105 (2020);
          URL http://www.quantum-espresso.org", 
     in publications or presentations arising from this work. More details at
     http://www.quantum-espresso.org/quote

     Parallel version (MPI), running on     2 processors

     MPI processes distributed on     1 nodes
     245 MiB available memory on the printing compute node when the environment starts

     Waiting for input...
     Reading input from standard input

     Current dimensions of program PWSCF are:
     Max number of different atomic species (ntypx) = 10
     Max number of k-points (npk) =  40000
     Max angular momentum in pseudopotentials (lmaxx) =  4
     file Fe.pbe-nd-rrkjus.UPF: wavefunction(s)  4S renormalized
     Message from routine setup:
     using ibrav=0 with symmetry is DISCOURAGED, use correct ibrav instead

     R & G space division:  proc/nbgrp/npool/nimage =       2
     Subspace diagonalization in iterative solution of the eigenvalue problem:
     a serial algorithm will be used


     Parallelization info
     --------------------
     sticks:   dense  smooth     PW     G-vecs:    dense   smooth      PW
     Min         218      86     45                 2887      739     265
     Max         219      87     46                 2888      742     266
     Sum         437     173     91                 5775     1481     531

     Using Slab Decomposition



     bravais-lattice index     =            0
     lattice parameter (alat)  =       4.4187  a.u.
     unit-cell volume          =      66.4137 (a.u.)^3
     number of atoms/cell      =            1
     number of atomic types    =            1
     number of electrons       =         8.00
     number of Kohn-Sham states=            8
     kinetic-energy cutoff     =      30.0000  Ry
     charge density cutoff     =     300.0000  Ry
     scf convergence threshold =      1.0E-07
     mixing beta               =       0.5000
     number of iterations used =            8  plain     mixing
     energy convergence thresh.=      1.0E-04
     force convergence thresh. =      1.0E-03
     press convergence thresh. =      5.0E-01
     Exchange-correlation=  SLA  PW   PBE  PBE
                           (   1   4   3   4   0   0   0)
     nstep                     =           50


     celldm(1)=   4.418687  celldm(2)=   0.000000  celldm(3)=   0.000000
     celldm(4)=   0.000000  celldm(5)=   0.000000  celldm(6)=   0.000000

     crystal axes: (cart. coord. in units of alat)
               a(1) = (  -0.577350   0.577350   0.577350 )  
               a(2) = (   0.577350  -0.577350   0.577350 )  
               a(3) = (   0.577350   0.577350  -0.577350 )  

     reciprocal axes: (cart. coord. in units 2 pi/alat)
               b(1) = (  0.000000  0.866025  0.866025 )  
               b(2) = (  0.866025  0.000000  0.866025 )  
               b(3) = (  0.866025  0.866025  0.000000 )  


     PseudoPot. # 1 for Fe read from file:
     /home/bond/Software/QE/qe-7.4.1/pseudo/Fe.pbe-nd-rrkjus.UPF
     MD5 check sum: 398036227a04b607635f6f5e8dfd8242
     Pseudo is Ultrasoft + core correction, Zval =  8.0
     Generated by new atomic code, or converted to UPF format
     Using radial grid of  957 points,  6 beta functions with: 
                l(1) =   0
                l(2) =   0
                l(3) =   1
                l(4) =   1
                l(5) =   2
                l(6) =   2
     Q(r) pseudized with 0 coefficients 


     atomic species   valence    mass     pseudopotential
     Fe                8.00    55.84500     Fe( 1.00)

     Starting magnetic structure 
     atomic species   magnetization
     Fe              0.700

     48 Sym. Ops., with inversion, found



   Cartesian axes

     site n.     atom                  positions (alat units)
         1        Fe     tau(   1) = (   0.0000000   0.0000000   0.0000000  )

     number of k points=    29  Methfessel-Paxton smearing, width (Ry)=  0.0200
                       cart. coord. in units 2pi/alat
        k(    1) = (   0.0000000   0.0000000   0.0000000), wk =   0.0019531
        k(    2) = (   0.1082532   0.1082532   0.0000000), wk =   0.0234375
        k(    3) = (   0.2165064   0.2165064   0.0000000), wk =   0.0234375
        k(    4) = (   0.3247595   0.3247595   0.0000000), wk =   0.0234375
        k(    5) = (  -0.4330127  -0.4330127   0.0000000), wk =   0.0117188
        k(    6) = (   0.2165064   0.1082532   0.1082532), wk =   0.0468750
        k(    7) = (   0.3247595   0.2165064   0.1082532), wk =   0.0937500
        k(    8) = (   0.4330127   0.3247595   0.1082532), wk =   0.0937500
        k(    9) = (   0.4330127   0.2165064   0.2165064), wk =   0.0468750
        k(   10) = (   0.5412659   0.3247595   0.2165064), wk =   0.0468750
        k(   11) = (   0.2165064   0.2165064   0.2165064), wk =   0.0156250
        k(   12) = (   0.3247595   0.3247595   0.2165064), wk =   0.0468750
        k(   13) = (   0.4330127   0.4330127   0.2165064), wk =   0.0234375
        k(   14) = (   0.0000000   0.0000000   0.2165064), wk =   0.0117188
        k(   15) = (   0.4330127   0.3247595   0.3247595), wk =   0.0468750
        k(   16) = (   0.0000000  -0.1082532   0.3247595), wk =   0.0468750
        k(   17) = (   0.0000000  -0.2165064   0.4330127), wk =   0.0468750
        k(   18) = (   0.1082532  -0.1082532   0.4330127), wk =   0.0468750
        k(   19) = (  -0.8660254  -0.3247595  -0.3247595), wk =   0.0234375
        k(   20) = (  -0.7577722  -0.2165064  -0.3247595), wk =   0.0937500
        k(   21) = (  -0.6495191  -0.2165064  -0.2165064), wk =   0.0156250
        k(   22) = (   0.4330127   0.4330127   0.4330127), wk =   0.0039062
        k(   23) = (   0.0000000   0.0000000   0.4330127), wk =   0.0117188
        k(   24) = (   0.0000000  -0.1082532   0.5412659), wk =   0.0468750
        k(   25) = (  -0.8660254  -0.2165064  -0.2165064), wk =   0.0234375
        k(   26) = (  -0.7577722  -0.1082532  -0.2165064), wk =   0.0468750
        k(   27) = (   0.0000000   0.0000000   0.6495191), wk =   0.0117188
        k(   28) = (  -0.8660254  -0.1082532  -0.1082532), wk =   0.0234375
        k(   29) = (  -0.8660254  -0.8660254  -0.8660254), wk =   0.0019531

     Dense  grid:     5775 G-vectors     FFT dimensions: (  25,  25,  25)

     Smooth grid:     1481 G-vectors     FFT dimensions: (  15,  15,  15)

     Estimated max dynamical RAM per process >      15.33 MB

     Estimated total dynamical RAM >      30.65 MB

     Check: negative core charge=   -0.000001
     Generating pointlists ...
     new r_m :   0.4125 (alat units)  1.8227 (a.u.) for type    1

     Initial potential from superposition of free atoms

     starting charge       7.9994, renormalised to       8.0000
     Starting wfcs are    6 randomized atomic wfcs +    2 random wfcs

     total cpu time spent up to now is        0.4 secs

     Self-consistent Calculation

     iteration #  1     ecut=    30.00 Ry     beta= 0.50
     Davidson diagonalization with overlap
     ethr =  1.00E-02,  avg # of iterations =  4.6

     total cpu time spent up to now is        0.6 secs

     total energy              =     -55.66929944 Ry
     estimated scf accuracy    <       0.30529437 Ry

     total magnetization       =     2.81 Bohr mag/cell
     absolute magnetization    =     2.81 Bohr mag/cell

     iteration #  2     ecut=    30.00 Ry     beta= 0.50
     Davidson diagonalization with overlap
     ethr =  3.82E-03,  avg # of iterations =  1.7

     total cpu time spent up to now is        0.7 secs

     total energy              =     -55.75607185 Ry
     estimated scf accuracy    <       0.03716450 Ry

     total magnetization       =     2.67 Bohr mag/cell
     absolute magnetization    =     2.67 Bohr mag/cell

     iteration #  3     ecut=    30.00 Ry     beta= 0.50
     Davidson diagonalization with overlap
     ethr =  4.65E-04,  avg # of iterations =  1.3

     total cpu time spent up to now is        0.9 secs

     total energy              =     -55.77853589 Ry
     estimated scf accuracy    <       0.01104219 Ry

     total magnetization       =     2.50 Bohr mag/cell
     absolute magnetization    =     2.53 Bohr mag/cell

     iteration #  4     ecut=    30.00 Ry     beta= 0.50
     Davidson diagonalization with overlap
     ethr =  1.38E-04,  avg # of iterations =  1.8

     total cpu time spent up to now is        1.1 secs

     total energy              =     -55.78600368 Ry
     estimated scf accuracy    <       0.00111995 Ry

     total magnetization       =     2.13 Bohr mag/cell
     absolute magnetization    =     2.25 Bohr mag/cell

     iteration #  5     ecut=    30.00 Ry     beta= 0.50
     Davidson diagonalization with overlap
     ethr =  1.40E-05,  avg # of iterations =  5.0

     total cpu time spent up to now is        1.2 secs

     total energy              =     -55.78572588 Ry
     estimated scf accuracy    <       0.00109473 Ry

     total magnetization       =     2.13 Bohr mag/cell
     absolute magnetization    =     2.25 Bohr mag/cell

     iteration #  6     ecut=    30.00 Ry     beta= 0.50
     Davidson diagonalization with overlap
     ethr =  1.37E-05,  avg # of iterations =  1.0

     total cpu time spent up to now is        1.3 secs

     total energy              =     -55.78154262 Ry
     estimated scf accuracy    <       0.00129961 Ry

     total magnetization       =     2.15 Bohr mag/cell
     absolute magnetization    =     2.27 Bohr mag/cell

     iteration #  7     ecut=    30.00 Ry     beta= 0.50
     Davidson diagonalization with overlap
     ethr =  1.37E-05,  avg # of iterations =  2.1

     total cpu time spent up to now is        1.5 secs

     total energy              =     -55.78668346 Ry
     estimated scf accuracy    <       0.00231729 Ry

     total magnetization       =     1.99 Bohr mag/cell
     absolute magnetization    =     2.14 Bohr mag/cell

     iteration #  8     ecut=    30.00 Ry     beta= 0.50
     Davidson diagonalization with overlap
     ethr =  1.37E-05,  avg # of iterations =  1.5

     total cpu time spent up to now is        1.6 secs

     total energy              =     -55.78754165 Ry
     estimated scf accuracy    <       0.00056211 Ry

     total magnetization       =     2.02 Bohr mag/cell
     absolute magnetization    =     2.15 Bohr mag/cell

     iteration #  9     ecut=    30.00 Ry     beta= 0.50
     Davidson diagonalization with overlap
     ethr =  7.03E-06,  avg # of iterations =  1.0

     total cpu time spent up to now is        1.7 secs

     total energy              =     -55.78767783 Ry
     estimated scf accuracy    <       0.00031884 Ry

     total magnetization       =     2.00 Bohr mag/cell
     absolute magnetization    =     2.13 Bohr mag/cell

     iteration # 10     ecut=    30.00 Ry     beta= 0.50
     Davidson diagonalization with overlap
     ethr =  3.99E-06,  avg # of iterations =  1.0

     total cpu time spent up to now is        1.8 secs

     total energy              =     -55.78777131 Ry
     estimated scf accuracy    <       0.00023348 Ry

     total magnetization       =     2.00 Bohr mag/cell
     absolute magnetization    =     2.12 Bohr mag/cell

     iteration # 11     ecut=    30.00 Ry     beta= 0.50
     Davidson diagonalization with overlap
     ethr =  2.92E-06,  avg # of iterations =  1.0

     total cpu time spent up to now is        1.9 secs

     total energy              =     -55.78784623 Ry
     estimated scf accuracy    <       0.00012371 Ry

     total magnetization       =     2.00 Bohr mag/cell
     absolute magnetization    =     2.12 Bohr mag/cell

     iteration # 12     ecut=    30.00 Ry     beta= 0.50
     Davidson diagonalization with overlap
     ethr =  1.55E-06,  avg # of iterations =  1.2

     total cpu time spent up to now is        2.0 secs

     total energy              =     -55.78787868 Ry
     estimated scf accuracy    <       0.00004260 Ry

     total magnetization       =     2.00 Bohr mag/cell
     absolute magnetization    =     2.11 Bohr mag/cell

     iteration # 13     ecut=    30.00 Ry     beta= 0.50
     Davidson diagonalization with overlap
     ethr =  5.33E-07,  avg # of iterations =  1.5

     total cpu time spent up to now is        2.1 secs

     total energy              =     -55.78789038 Ry
     estimated scf accuracy    <       0.00000084 Ry

     total magnetization       =     2.00 Bohr mag/cell
     absolute magnetization    =     2.11 Bohr mag/cell

     iteration # 14     ecut=    30.00 Ry     beta= 0.50
     Davidson diagonalization with overlap
     ethr =  1.05E-08,  avg # of iterations =  4.6

     total cpu time spent up to now is        2.2 secs

     total energy              =     -55.78789060 Ry
     estimated scf accuracy    <       0.00000044 Ry

     total magnetization       =     2.00 Bohr mag/cell
     absolute magnetization    =     2.11 Bohr mag/cell

     iteration # 15     ecut=    30.00 Ry     beta= 0.50
     Davidson diagonalization with overlap
     ethr =  5.54E-09,  avg # of iterations =  1.4

     total cpu time spent up to now is        2.3 secs

     total energy              =     -55.78789152 Ry
     estimated scf accuracy    <       0.00000155 Ry

     total magnetization       =     2.00 Bohr mag/cell
     absolute magnetization    =     2.11 Bohr mag/cell

     iteration # 16     ecut=    30.00 Ry     beta= 0.50
     Davidson diagonalization with overlap
     ethr =  5.54E-09,  avg # of iterations =  1.5

     Magnetic moment per site  (integrated on atomic sphere of radius R)
     atom   1 (R=0.413)  charge=  6.3591  magn=  2.0418

     total cpu time spent up to now is        2.4 secs

     End of self-consistent calculation

 ------ SPIN UP ------------


          k = 0.0000 0.0000 0.0000 (   177 PWs)   bands (ev):

     7.0959  13.6665  13.6665  13.6665  15.1543  15.1543  42.3974  42.3975

          k = 0.1083 0.1083 0.0000 (   189 PWs)   bands (ev):

     7.8109  13.4532  13.6254  14.0854  14.9777  15.1735  39.4194  41.5303

          k = 0.2165 0.2165 0.0000 (   190 PWs)   bands (ev):

     9.5611  12.9624  13.5131  14.9615  15.1787  15.2450  33.8465  38.9327

          k = 0.3248 0.3248 0.0000 (   186 PWs)   bands (ev):

    10.5481  12.5010  14.8250  15.3526  15.3728  16.4258  28.2051  36.6552

          k =-0.4330-0.4330 0.0000 (   186 PWs)   bands (ev):

    10.5344  12.3173  15.2616  15.4085  16.9951  17.0039  25.1215  35.8040

          k = 0.2165 0.1083 0.1083 (   183 PWs)   bands (ev):

     9.0924  13.2237  13.2609  14.8021  14.9665  15.3068  36.4418  37.8810

          k = 0.3248 0.2165 0.1083 (   184 PWs)   bands (ev):

    10.7092  12.7144  13.3233  14.9512  15.4748  16.5576  31.1807  35.0847

          k = 0.4330 0.3248 0.1083 (   182 PWs)   bands (ev):

    10.9258  12.4257  14.3429  15.2090  15.9032  18.6525  26.1806  33.6781

          k = 0.4330 0.2165 0.2165 (   179 PWs)   bands (ev):

    11.6542  12.3899  13.2476  15.1169  15.6806  19.2648  28.7611  29.9891

          k = 0.5413 0.3248 0.2165 (   181 PWs)   bands (ev):

    11.7172  12.4636  13.2553  15.3317  15.7558  22.0812  25.2404  28.8575

          k = 0.2165 0.2165 0.2165 (   180 PWs)   bands (ev):

    10.6841  12.7085  12.7085  15.1861  15.1861  16.6104  34.0034  34.0034

          k = 0.3248 0.3248 0.2165 (   180 PWs)   bands (ev):

    11.6167  12.3571  13.2122  15.2874  15.3784  18.9314  28.8384  32.3041

          k = 0.4330 0.4330 0.2165 (   180 PWs)   bands (ev):

    11.4696  12.2419  14.0817  15.3706  15.4318  21.1205  25.3029  31.6925

          k = 0.0000 0.0000 0.2165 (   181 PWs)   bands (ev):

     8.4849  13.6951  13.6951  14.0820  14.4388  15.4396  38.4440  41.0953

          k = 0.4330 0.3248 0.3248 (   187 PWs)   bands (ev):

    12.0286  12.4731  13.0770  15.4040  15.4655  22.3006  26.8183  28.3398

          k = 0.0000-0.1083 0.3248 (   184 PWs)   bands (ev):

    10.1011  13.3389  13.3765  14.4038  15.0799  15.7885  34.2862  38.0615

          k = 0.0000-0.2165 0.4330 (   181 PWs)   bands (ev):

    10.9832  12.9706  13.3419  14.9100  16.3545  17.1587  28.5898  36.2314

          k = 0.1083-0.1083 0.4330 (   184 PWs)   bands (ev):

    11.3148  12.5458  13.5709  14.5707  15.7874  17.2758  31.7125  32.7058

          k =-0.8660-0.3248-0.3248 (   186 PWs)   bands (ev):

    10.9176  12.8061  13.6893  14.9255  16.9533  19.1924  25.1943  35.5754

          k =-0.7578-0.2165-0.3248 (   186 PWs)   bands (ev):

    11.5167  12.5445  13.1991  15.0156  16.3650  20.4137  26.7013  30.8525

          k =-0.6495-0.2165-0.2165 (   197 PWs)   bands (ev):

    12.1260  12.1260  12.7623  15.8265  15.8265  24.5141  24.5141  27.4116

          k = 0.4330 0.4330 0.4330 (   180 PWs)   bands (ev):

    12.5682  12.5682  12.5682  15.4550  15.4550  26.1407  26.1407  26.1407

          k = 0.0000 0.0000 0.4330 (   184 PWs)   bands (ev):

    11.1319  12.7409  14.2099  14.2099  15.1173  16.8361  35.2512  35.5333

          k = 0.0000-0.1083 0.5413 (   186 PWs)   bands (ev):

    11.4966  11.9855  14.2229  14.7549  16.1941  19.2738  29.7380  32.9721

          k =-0.8660-0.2165-0.2165 (   194 PWs)   bands (ev):

    11.2840  11.9480  14.1317  14.8992  16.8322  22.3285  25.5765  31.9300

          k =-0.7578-0.1083-0.2165 (   192 PWs)   bands (ev):

    11.3768  11.4385  14.2988  15.6783  16.4513  22.8743  27.6580  28.5856

          k = 0.0000 0.0000 0.6495 (   188 PWs)   bands (ev):

    11.1071  11.1236  15.5930  15.5930  16.2004  22.0529  30.0483  30.0483

          k =-0.8660-0.1083-0.1083 (   190 PWs)   bands (ev):

    10.7968  10.8532  15.7931  16.0184  16.7125  25.5455  26.5790  28.8322

          k =-0.8660-0.8660-0.8660 (   188 PWs)   bands (ev):

    10.4819  10.4819  16.6634  16.6634  16.6634  27.5061  27.5061  27.5061

 ------ SPIN DOWN ----------


          k = 0.0000 0.0000 0.0000 (   177 PWs)   bands (ev):

     7.1995  15.5455  15.5455  15.5455  18.0198  18.0198  42.1794  42.1794

          k = 0.1083 0.1083 0.0000 (   189 PWs)   bands (ev):

     7.9218  15.2939  15.4784  15.9968  17.7728  18.0406  39.6178  41.4789

          k = 0.2165 0.2165 0.0000 (   190 PWs)   bands (ev):

     9.7970  14.7212  15.1967  17.1853  17.5970  18.1297  34.4863  39.0246

          k = 0.3248 0.3248 0.0000 (   186 PWs)   bands (ev):

    11.4829  14.1896  15.7483  17.7773  18.2757  18.5656  29.2062  36.7094

          k =-0.4330-0.4330 0.0000 (   186 PWs)   bands (ev):

    11.7952  13.9796  17.0584  17.8671  18.3549  19.2179  26.4722  35.8238

          k = 0.2165 0.1083 0.1083 (   183 PWs)   bands (ev):

     9.2463  14.9983  15.0803  16.9174  17.4821  18.1791  36.8925  38.2385

          k = 0.3248 0.2165 0.1083 (   184 PWs)   bands (ev):

    11.2440  14.4278  14.8247  17.5099  18.2305  18.5939  31.9590  35.5156

          k = 0.4330 0.3248 0.1083 (   182 PWs)   bands (ev):

    12.1547  14.0732  15.6378  17.7714  18.4702  20.2055  27.3353  34.0858

          k = 0.4330 0.2165 0.2165 (   179 PWs)   bands (ev):

    12.7572  14.0315  14.6249  17.6493  18.3665  20.8803  29.6626  30.6517

          k = 0.5413 0.3248 0.2165 (   181 PWs)   bands (ev):

    13.1188  14.0405  14.6886  17.8878  18.3164  23.2594  26.3855  29.5711

          k = 0.2165 0.2165 0.2165 (   180 PWs)   bands (ev):

    10.9540  14.4067  14.4067  17.9856  17.9856  18.5298  34.5462  34.5462

          k = 0.3248 0.3248 0.2165 (   180 PWs)   bands (ev):

    12.6082  13.9499  14.4095  18.0360  18.2874  20.5706  29.6808  32.8443

          k = 0.4330 0.4330 0.2165 (   180 PWs)   bands (ev):

    12.7757  13.7951  15.1842  18.1096  18.3853  22.2831  26.4855  32.2179

          k = 0.0000 0.0000 0.2165 (   181 PWs)   bands (ev):

     8.6114  15.5303  15.5303  15.9982  17.1039  18.3456  38.6939  41.3502

          k = 0.4330 0.3248 0.3248 (   187 PWs)   bands (ev):

    13.4165  13.9034  14.2806  18.2355  18.3681  23.4988  27.7158  29.0832

          k = 0.0000-0.1083 0.3248 (   184 PWs)   bands (ev):

    10.3859  15.1561  15.2517  16.7141  17.0748  18.6068  34.9359  38.3698

          k = 0.0000-0.2165 0.4330 (   181 PWs)   bands (ev):

    11.9986  14.6890  14.9879  17.2122  18.4847  19.2483  29.5489  36.5390

          k = 0.1083-0.1083 0.4330 (   184 PWs)   bands (ev):

    12.0548  14.4845  15.2738  16.7230  18.0342  19.4086  32.5477  33.2839

          k =-0.8660-0.3248-0.3248 (   186 PWs)   bands (ev):

    12.2892  14.5008  15.3596  17.3275  19.1619  20.4811  26.4823  35.8726

          k =-0.7578-0.2165-0.3248 (   186 PWs)   bands (ev):

    12.9617  14.2281  14.9120  17.2339  18.5950  21.8104  27.7401  31.5086

          k =-0.6495-0.2165-0.2165 (   197 PWs)   bands (ev):

    13.8418  13.8418  14.3252  18.0355  18.0355  25.6107  25.6107  28.1974

          k = 0.4330 0.4330 0.4330 (   180 PWs)   bands (ev):

    13.9084  13.9084  13.9084  18.4157  18.4157  27.0252  27.0252  27.0252

          k = 0.0000 0.0000 0.4330 (   184 PWs)   bands (ev):

    11.7505  14.9928  16.0153  16.0153  17.1319  19.2312  36.0112  36.0997

          k = 0.0000-0.1083 0.5413 (   186 PWs)   bands (ev):

    12.8252  13.9354  16.0333  16.7059  18.3057  20.8218  30.5426  33.4934

          k =-0.8660-0.2165-0.2165 (   194 PWs)   bands (ev):

    13.0060  13.6993  15.9329  16.8808  19.0281  23.3636  26.6261  32.3939

          k =-0.7578-0.1083-0.2165 (   192 PWs)   bands (ev):

    13.1389  13.2550  16.0721  17.6910  18.5936  23.9139  28.4963  29.1910

          k = 0.0000 0.0000 0.6495 (   188 PWs)   bands (ev):

    12.7744  13.0603  17.5362  17.5362  18.3277  23.0118  30.4739  30.4739

          k =-0.8660-0.1083-0.1083 (   190 PWs)   bands (ev):

    12.6445  12.6623  17.7985  18.0309  18.8961  26.1637  27.1493  29.1594

          k =-0.8660-0.8660-0.8660 (   188 PWs)   bands (ev):

    12.3118  12.3118  18.8420  18.8420  18.8420  27.6868  27.6868  27.6868

     the Fermi energy is    16.4007 ev

!    total energy              =     -55.78789161 Ry
     estimated scf accuracy    <       0.00000010 Ry
     smearing contrib. (-TS)   =       0.00001208 Ry
     internal energy E=F+TS    =     -55.78790369 Ry

     The total energy is F=E-TS. E is the sum of the following terms:
     one-electron contribution =      10.65237525 Ry
     hartree contribution      =       5.74862948 Ry
     xc contribution           =     -26.54032989 Ry
     ewald contribution        =     -45.64857853 Ry

     total magnetization       =     2.00 Bohr mag/cell
     absolute magnetization    =     2.11 Bohr mag/cell

     convergence has been achieved in  16 iterations

     Forces acting on atoms (cartesian axes, Ry/au):

     atom    1 type  1   force =     0.00000000    0.00000000    0.00000000

     Total force =     0.000000     Total SCF correction =     0.000000


     Computing stress (Cartesian axis) and pressure

          total   stress  (Ry/bohr**3)                   (kbar)     P=      399.79
   0.00271769  -0.00000000   0.00000000          399.79       -0.00        0.00
   0.00000000   0.00271769   0.00000000            0.00      399.79        0.00
   0.00000000   0.00000000   0.00271769            0.00        0.00      399.79


     BFGS Geometry Optimization
     Energy error            =      3.3E-02 Ry
     Gradient error          =      0.0E+00 Ry/Bohr
     Cell gradient error     =      4.0E+02 kbar

     number of scf cycles    =   1
     number of bfgs steps    =   0

     enthalpy           new  =     -55.7878916093 Ry

     new trust radius        =       0.1107384658 bohr
     new conv_thr            =       0.0000001000 Ry

     new unit-cell volume =     80.89117 a.u.^3 (    11.98684 Ang^3 )
     density =      7.73622 g/cm^3

CELL_PARAMETERS (angstrom)
  -1.441721960   1.441721960   1.441721960
   1.441721960  -1.441721960   1.441721960
   1.441721960   1.441721960  -1.441721960

ATOMIC_POSITIONS (angstrom)
Fe               0.0000000000        0.0000000000        0.0000000000


     Message from routine punch:
     Nothing written, as per user request (disk_io='none')
     NEW-OLD atomic charge density approx. for the potential
     New effective cutoffs (rho, wfc):  260.61   26.30

     Check: negative core charge=   -0.000002
     Generating pointlists ...

     total cpu time spent up to now is        2.6 secs

     Self-consistent Calculation

     iteration #  1     ecut=    30.00 Ry     beta= 0.50
     Davidson diagonalization with overlap
     ethr =  1.00E-06,  avg # of iterations =  6.8

     total cpu time spent up to now is        2.8 secs

     total energy              =     -55.79805912 Ry
     estimated scf accuracy    <       0.00255950 Ry

     total magnetization       =     2.20 Bohr mag/cell
     absolute magnetization    =     2.32 Bohr mag/cell

     iteration #  2     ecut=    30.00 Ry     beta= 0.50
     Davidson diagonalization with overlap
     ethr =  3.20E-05,  avg # of iterations =  1.0

     total cpu time spent up to now is        2.9 secs

     total energy              =     -55.79925542 Ry
     estimated scf accuracy    <       0.00184256 Ry

     total magnetization       =     2.28 Bohr mag/cell
     absolute magnetization    =     2.42 Bohr mag/cell

     iteration #  3     ecut=    30.00 Ry     beta= 0.50
     Davidson diagonalization with overlap
     ethr =  2.30E-05,  avg # of iterations =  1.0

     total cpu time spent up to now is        3.0 secs

     total energy              =     -55.79948052 Ry
     estimated scf accuracy    <       0.00099310 Ry

     total magnetization       =     2.33 Bohr mag/cell
     absolute magnetization    =     2.48 Bohr mag/cell

     iteration #  4     ecut=    30.00 Ry     beta= 0.50
     Davidson diagonalization with overlap
     ethr =  1.24E-05,  avg # of iterations =  2.0

     total cpu time spent up to now is        3.1 secs

     total energy              =     -55.80098886 Ry
     estimated scf accuracy    <       0.00005850 Ry

     total magnetization       =     2.48 Bohr mag/cell
     absolute magnetization    =     2.66 Bohr mag/cell

     iteration #  5     ecut=    30.00 Ry     beta= 0.50
     Davidson diagonalization with overlap
     ethr =  7.31E-07,  avg # of iterations =  1.8

     total cpu time spent up to now is        3.2 secs

     total energy              =     -55.80102261 Ry
     estimated scf accuracy    <       0.00002922 Ry

     total magnetization       =     2.47 Bohr mag/cell
     absolute magnetization    =     2.65 Bohr mag/cell

     iteration #  6     ecut=    30.00 Ry     beta= 0.50
     Davidson diagonalization with overlap
     ethr =  3.65E-07,  avg # of iterations =  1.8

     total cpu time spent up to now is        3.3 secs

     total energy              =     -55.80107180 Ry
     estimated scf accuracy    <       0.00000426 Ry

     total magnetization       =     2.50 Bohr mag/cell
     absolute magnetization    =     2.68 Bohr mag/cell

     iteration #  7     ecut=    30.00 Ry     beta= 0.50
     Davidson diagonalization with overlap
     ethr =  5.33E-08,  avg # of iterations =  2.6

     total cpu time spent up to now is        3.4 secs

     total energy              =     -55.80108582 Ry
     estimated scf accuracy    <       0.00000029 Ry

     total magnetization       =     2.51 Bohr mag/cell
     absolute magnetization    =     2.69 Bohr mag/cell

     iteration #  8     ecut=    30.00 Ry     beta= 0.50
     Davidson diagonalization with overlap
     ethr =  3.61E-09,  avg # of iterations =  4.1

     Magnetic moment per site  (integrated on atomic sphere of radius R)
     atom   1 (R=0.413)  charge=  6.1508  magn=  2.5796

     total cpu time spent up to now is        3.5 secs

     End of self-consistent calculation

 ------ SPIN UP ------------


          k = 0.0000 0.0000 0.0000 (   177 PWs)   bands (ev):

     4.5598  10.2130  10.2130  10.2130  11.4014  11.4014  36.8990  36.8990

          k = 0.1014 0.1014 0.0000 (   189 PWs)   bands (ev):

     5.1734  10.0616  10.1936  10.5251  11.2748  11.4147  33.5654  35.8591

          k = 0.2027 0.2027 0.0000 (   190 PWs)   bands (ev):

     6.7400   9.7085  10.1544  11.2342  11.3360  11.4616  27.8886  33.2848

          k = 0.3041 0.3041 0.0000 (   186 PWs)   bands (ev):

     7.8130   9.3719  11.2124  11.5305  11.5915  12.2519  22.4773  31.2591

          k =-0.4055-0.4055 0.0000 (   186 PWs)   bands (ev):

     7.8795   9.2368  11.4329  11.5659  12.6720  13.3040  19.4610  30.5256

          k = 0.2027 0.1014 0.1014 (   183 PWs)   bands (ev):

     6.2956   9.9023   9.9491  11.1381  11.1817  11.5029  30.6076  31.7118

          k = 0.3041 0.2027 0.1014 (   184 PWs)   bands (ev):

     7.8271   9.5422  10.0144  11.2206  11.6099  12.4096  25.3522  29.1296

          k = 0.4055 0.3041 0.1014 (   182 PWs)   bands (ev):

     8.1726   9.3208  10.8361  11.3993  11.9262  14.2963  20.5662  27.8752

          k = 0.4055 0.2027 0.2027 (   179 PWs)   bands (ev):

     8.7027   9.3441   9.9525  11.3349  11.7457  14.7014  23.2732  24.0512

          k = 0.5068 0.3041 0.2027 (   181 PWs)   bands (ev):

     8.7910   9.3737  10.0042  11.4874  11.7956  17.3279  19.8217  23.1182

          k = 0.2027 0.2027 0.2027 (   180 PWs)   bands (ev):

     7.7074   9.5420   9.5420  11.4064  11.4064  12.4367  28.2466  28.2466

          k = 0.3041 0.3041 0.2027 (   180 PWs)   bands (ev):

     8.6670   9.2729   9.9131  11.4666  11.5437  14.3826  23.2002  26.6966

          k = 0.4055 0.4055 0.2027 (   180 PWs)   bands (ev):

     8.5972   9.1829  10.6007  11.5220  11.5817  16.4961  19.7554  26.1540

          k = 0.0000-0.0000 0.2027 (   181 PWs)   bands (ev):

     5.7591  10.2441  10.2441  10.5255  10.9020  11.5980  32.9133  34.6601

          k = 0.4055 0.3041 0.3041 (   187 PWs)   bands (ev):

     9.0160   9.3718   9.8176  11.5540  11.6019  17.4037  21.5389  22.5543

          k = 0.0000-0.1014 0.3041 (   184 PWs)   bands (ev):

     7.2229  10.0166  10.0639  10.8184  11.2659  11.8483  28.3280  32.1513

          k = 0.0000-0.2027 0.4055 (   181 PWs)   bands (ev):

     8.1823   9.7213  10.0961  11.1828  12.2010  13.0151  22.8594  30.5890

          k = 0.1014-0.1014 0.4055 (   184 PWs)   bands (ev):

     8.3851   9.5036  10.1791  10.9239  11.7986  13.0360  25.9468  26.5689

          k =-0.8109-0.3041-0.3041 (   186 PWs)   bands (ev):

     8.2016   9.6007  10.3646  11.1928  12.6355  14.9681  19.5757  29.3427

          k =-0.7096-0.2027-0.3041 (   186 PWs)   bands (ev):

     8.6791   9.4831   9.9214  11.2490  12.2223  15.8066  21.1509  25.0046

          k =-0.6082-0.2027-0.2027 (   197 PWs)   bands (ev):

     9.1879   9.1879   9.5632  11.8337  11.8337  19.4427  19.4427  21.6020

          k = 0.4055 0.4055 0.4055 (   180 PWs)   bands (ev):

     9.4277   9.4277   9.4277  11.5977  11.5977  20.9363  20.9363  20.9363

          k = 0.0000-0.0000 0.4055 (   184 PWs)   bands (ev):

     8.2140   9.6840  10.6386  10.6386  11.2964  12.6653  29.1105  29.6542

          k = 0.0000-0.1014 0.5068 (   186 PWs)   bands (ev):

     8.6661   9.1075  10.6512  11.0516  12.0865  14.7818  23.9743  26.8605

          k =-0.8109-0.2027-0.2027 (   194 PWs)   bands (ev):

     8.5601   9.0668  10.5851  11.1603  12.5480  17.6156  20.0732  25.9786

          k =-0.7096-0.1014-0.2027 (   192 PWs)   bands (ev):

     8.6567   8.6784  10.7105  11.7229  12.2777  17.9744  22.2328  22.8838

          k = 0.0000-0.0000 0.6082 (   188 PWs)   bands (ev):

     8.4268   8.4807  11.6604  11.6604  12.0904  17.2675  24.3723  24.3723

          k =-0.8109-0.1014-0.1014 (   190 PWs)   bands (ev):

     8.2270   8.2622  11.8028  11.9691  12.4613  20.4750  21.2441  23.3723

          k =-0.8109-0.8109-0.8109 (   188 PWs)   bands (ev):

     7.9928   7.9928  12.4257  12.4257  12.4257  22.2988  22.2988  22.2988

 ------ SPIN DOWN ----------


          k = 0.0000 0.0000 0.0000 (   177 PWs)   bands (ev):

     4.6218  12.7779  12.7779  12.7779  14.6205  14.6205  36.5348  36.5348

          k = 0.1014 0.1014 0.0000 (   189 PWs)   bands (ev):

     5.2413  12.5805  12.7164  13.1298  14.4358  14.6376  33.7286  35.6907

          k = 0.2027 0.2027 0.0000 (   190 PWs)   bands (ev):

     6.9251  12.1270  12.4069  14.0571  14.3125  14.7056  28.5752  33.2504

          k = 0.3041 0.3041 0.0000 (   186 PWs)   bands (ev):

     8.8301  11.7020  12.4624  14.4539  14.8144  15.1342  23.6267  31.1793

          k =-0.4055-0.4055 0.0000 (   186 PWs)   bands (ev):

     9.4505  11.5333  13.2762  14.5143  14.8728  15.6428  21.1322  30.4105

          k = 0.2027 0.1014 0.1014 (   183 PWs)   bands (ev):

     6.4050  12.3352  12.3883  13.8368  14.2202  14.7406  31.0353  32.1227

          k = 0.3041 0.2027 0.1014 (   184 PWs)   bands (ev):

     8.3323  11.8638  12.0543  14.2525  14.8120  15.0700  26.2057  29.6139

          k = 0.4055 0.3041 0.1014 (   182 PWs)   bands (ev):

     9.6678  11.5866  12.3724  14.4480  14.9680  16.2931  21.9401  28.3426

          k = 0.4055 0.2027 0.2027 (   179 PWs)   bands (ev):

     9.9923  11.4298  11.8633  14.3648  14.8949  16.7899  24.2575  24.8423

          k = 0.5068 0.3041 0.2027 (   181 PWs)   bands (ev):

    10.6114  11.4651  11.7337  14.5437  14.8718  18.7222  21.1929  23.9578

          k = 0.2027 0.2027 0.2027 (   180 PWs)   bands (ev):

     7.9606  11.8379  11.8379  14.6020  14.6020  15.0532  28.8017  28.8017

          k = 0.3041 0.3041 0.2027 (   180 PWs)   bands (ev):

     9.7754  11.4594  11.6235  14.6440  14.8248  16.5893  24.1550  27.2753

          k = 0.4055 0.4055 0.2027 (   180 PWs)   bands (ev):

    10.2806  11.3297  12.0695  14.6992  14.8954  17.9586  21.2082  26.7286

          k = 0.0000-0.0000 0.2027 (   181 PWs)   bands (ev):

     5.8392  12.7556  12.7556  13.1372  13.9250  14.8621  33.0082  35.0494

          k = 0.4055 0.3041 0.3041 (   187 PWs)   bands (ev):

    10.8553  11.2788  11.4731  14.7924  14.8861  18.9212  22.5777  23.4337

          k = 0.0000-0.1014 0.3041 (   184 PWs)   bands (ev):

     7.4514  12.4595  12.4729  13.6411  13.9738  15.0368  29.0045  32.3855

          k = 0.0000-0.2027 0.4055 (   181 PWs)   bands (ev):

     9.2707  12.0360  12.0873  14.0216  15.0721  15.4485  23.9446  30.8028

          k = 0.1014-0.1014 0.4055 (   184 PWs)   bands (ev):

     9.1233  11.8438  12.5014  13.6629  14.7029  15.5796  26.8128  27.2618

          k =-0.8109-0.3041-0.3041 (   186 PWs)   bands (ev):

     9.8785  11.9364  12.1982  14.1029  15.5998  16.3666  21.1545  30.2246

          k =-0.7096-0.2027-0.3041 (   186 PWs)   bands (ev):

    10.3634  11.4728  12.1931  14.0497  15.1196  17.4453  22.3426  25.7518

          k =-0.6082-0.2027-0.2027 (   197 PWs)   bands (ev):

    11.1788  11.1788  11.7070  14.6847  14.6847  20.6553  20.6553  22.5892

          k = 0.4055 0.4055 0.4055 (   180 PWs)   bands (ev):

    11.2628  11.2628  11.2628  14.9181  14.9181  21.9907  21.9907  21.9907

          k = 0.0000-0.0000 0.4055 (   184 PWs)   bands (ev):

     8.7735  12.2743  13.1108  13.1108  14.0297  15.4297  29.8131  29.8131

          k = 0.0000-0.1014 0.5068 (   186 PWs)   bands (ev):

    10.0754  11.3839  13.1291  13.6356  14.9357  16.5721  24.8666  27.5023

          k =-0.8109-0.2027-0.2027 (   194 PWs)   bands (ev):

    10.5599  11.0401  13.0517  13.7492  15.4969  18.7131  21.3275  26.5512

          k =-0.7096-0.1014-0.2027 (   192 PWs)   bands (ev):

    10.6015  10.8229  13.1261  14.4236  15.1423  19.1353  23.1401  23.6178

          k = 0.0000-0.0000 0.6082 (   188 PWs)   bands (ev):

    10.2994  10.7144  14.3016  14.3016  14.9584  18.3326  24.8903  24.8903

          k =-0.8109-0.1014-0.1014 (   190 PWs)   bands (ev):

    10.3338  10.3530  14.5210  14.6876  15.3951  21.1339  21.9076  23.7692

          k =-0.8109-0.8109-0.8109 (   188 PWs)   bands (ev):

    10.1006  10.1006  15.3534  15.3534  15.3534  22.5156  22.5156  22.5156

     the Fermi energy is    12.5975 ev

!    total energy              =     -55.80108878 Ry
     estimated scf accuracy    <       0.00000001 Ry
     smearing contrib. (-TS)   =       0.00025481 Ry
     internal energy E=F+TS    =     -55.80134358 Ry

     The total energy is F=E-TS. E is the sum of the following terms:
     one-electron contribution =       6.59655261 Ry
     hartree contribution      =       6.79718392 Ry
     xc contribution           =     -26.45065176 Ry
     ewald contribution        =     -42.74442835 Ry

     total magnetization       =     2.51 Bohr mag/cell
     absolute magnetization    =     2.70 Bohr mag/cell

     convergence has been achieved in   8 iterations

     Forces acting on atoms (cartesian axes, Ry/au):

     atom    1 type  1   force =     0.00000000    0.00000000    0.00000000

     Total force =     0.000000     Total SCF correction =     0.000000


     Computing stress (Cartesian axis) and pressure

          total   stress  (Ry/bohr**3)                   (kbar)     P=      -26.54
  -0.00018040   0.00000000   0.00000000          -26.54        0.00        0.00
   0.00000000  -0.00018040   0.00000000            0.00      -26.54        0.00
   0.00000000   0.00000000  -0.00018040            0.00        0.00      -26.54

     Energy error            =      1.3E-02 Ry
     Gradient error          =      0.0E+00 Ry/Bohr
     Cell gradient error     =      2.7E+01 kbar

     number of scf cycles    =   2
     number of bfgs steps    =   1

     enthalpy           old  =     -55.7878916093 Ry
     enthalpy           new  =     -55.8010887769 Ry

     CASE: enthalpy          _new < enthalpy          _old

     new trust radius        =       0.0080540638 bohr
     new conv_thr            =       0.0000000010 Ry

     new unit-cell volume =     79.80946 a.u.^3 (    11.82654 Ang^3 )
     density =      7.84107 g/cm^3

CELL_PARAMETERS (angstrom)
  -1.435266666   1.435266666   1.435266666
   1.435266666  -1.435266666   1.435266666
   1.435266666   1.435266666  -1.435266666

ATOMIC_POSITIONS (angstrom)
Fe               0.0000000000        0.0000000000        0.0000000000


     Message from routine punch:
     Nothing written, as per user request (disk_io='none')
     NEW-OLD atomic charge density approx. for the potential
     New effective cutoffs (rho, wfc):  262.96   26.54

     Check: negative core charge=   -0.000002
     Generating pointlists ...

     total cpu time spent up to now is        3.7 secs

     Self-consistent Calculation

     iteration #  1     ecut=    30.00 Ry     beta= 0.50
     Davidson diagonalization with overlap
     ethr =  1.00E-06,  avg # of iterations =  3.5

     total cpu time spent up to now is        3.8 secs

     total energy              =     -55.80123089 Ry
     estimated scf accuracy    <       0.00002261 Ry

     total magnetization       =     2.49 Bohr mag/cell
     absolute magnetization    =     2.68 Bohr mag/cell

     iteration #  2     ecut=    30.00 Ry     beta= 0.50
     Davidson diagonalization with overlap
     ethr =  2.83E-07,  avg # of iterations =  1.0

     total cpu time spent up to now is        3.9 secs

     total energy              =     -55.80123796 Ry
     estimated scf accuracy    <       0.00001217 Ry

     total magnetization       =     2.49 Bohr mag/cell
     absolute magnetization    =     2.67 Bohr mag/cell

     iteration #  3     ecut=    30.00 Ry     beta= 0.50
     Davidson diagonalization with overlap
     ethr =  1.52E-07,  avg # of iterations =  1.5

     total cpu time spent up to now is        4.0 secs

     total energy              =     -55.80125211 Ry
     estimated scf accuracy    <       0.00000141 Ry

     total magnetization       =     2.47 Bohr mag/cell
     absolute magnetization    =     2.65 Bohr mag/cell

     iteration #  4     ecut=    30.00 Ry     beta= 0.50
     Davidson diagonalization with overlap
     ethr =  1.77E-08,  avg # of iterations =  2.0

     total cpu time spent up to now is        4.1 secs

     total energy              =     -55.80125284 Ry
     estimated scf accuracy    <       0.00000043 Ry

     total magnetization       =     2.47 Bohr mag/cell
     absolute magnetization    =     2.65 Bohr mag/cell

     iteration #  5     ecut=    30.00 Ry     beta= 0.50
     Davidson diagonalization with overlap
     ethr =  5.33E-09,  avg # of iterations =  2.0

     total cpu time spent up to now is        4.2 secs

     total energy              =     -55.80125440 Ry
     estimated scf accuracy    <       0.00000008 Ry

     total magnetization       =     2.46 Bohr mag/cell
     absolute magnetization    =     2.64 Bohr mag/cell

     iteration #  6     ecut=    30.00 Ry     beta= 0.50
     Davidson diagonalization with overlap
     ethr =  9.96E-10,  avg # of iterations =  2.3

     total cpu time spent up to now is        4.3 secs

     total energy              =     -55.80125448 Ry
     estimated scf accuracy    <       0.00000002 Ry

     total magnetization       =     2.46 Bohr mag/cell
     absolute magnetization    =     2.64 Bohr mag/cell

     iteration #  7     ecut=    30.00 Ry     beta= 0.50
     Davidson diagonalization with overlap
     ethr =  3.10E-10,  avg # of iterations =  2.0

     Magnetic moment per site  (integrated on atomic sphere of radius R)
     atom   1 (R=0.413)  charge=  6.1619  magn=  2.5272

     total cpu time spent up to now is        4.4 secs

     End of self-consistent calculation

 ------ SPIN UP ------------


          k = 0.0000 0.0000 0.0000 (   177 PWs)   bands (ev):

     4.7142  10.4353  10.4353  10.4353  11.6372  11.6372  37.2528  37.2528

          k = 0.1018 0.1018 0.0000 (   189 PWs)   bands (ev):

     5.3341  10.2801  10.4144  10.7537  11.5078  11.6509  33.9422  36.2250

          k = 0.2036 0.2036 0.0000 (   190 PWs)   bands (ev):

     6.9136   9.9188  10.3690  11.4694  11.5815  11.6991  28.2662  33.6482

          k = 0.3055 0.3055 0.0000 (   186 PWs)   bands (ev):

     7.9869   9.5746  11.4396  11.7702  11.8281  12.5172  22.8358  31.6060

          k =-0.4073-0.4073 0.0000 (   186 PWs)   bands (ev):

     8.0501   9.4366  11.6743  11.8068  12.9467  13.5315  19.8149  30.8649

          k = 0.2036 0.1018 0.1018 (   183 PWs)   bands (ev):

     6.4667  10.1165  10.1624  11.3691  11.4235  11.7416  30.9790  32.1094

          k = 0.3055 0.2036 0.1018 (   184 PWs)   bands (ev):

     8.0072   9.7473  10.2249  11.4565  11.8527  12.6719  25.7195  29.5104

          k = 0.4073 0.3055 0.1018 (   182 PWs)   bands (ev):

     8.3490   9.5218  11.0571  11.6398  12.1773  14.5672  20.9169  28.2464

          k = 0.4073 0.2036 0.2036 (   179 PWs)   bands (ev):

     8.8912   9.5395  10.1623  11.5740  11.9933  14.9865  23.6165  24.4256

          k = 0.5091 0.3055 0.2036 (   181 PWs)   bands (ev):

     8.9793   9.5723  10.2103  11.7302  12.0456  17.6229  20.1613  23.4780

          k = 0.2036 0.2036 0.2036 (   180 PWs)   bands (ev):

     7.8909   9.7465   9.7465  11.6441  11.6441  12.7012  28.6108  28.6108

          k = 0.3055 0.3055 0.2036 (   180 PWs)   bands (ev):

     8.8547   9.4724  10.1224  11.7071  11.7843  14.6678  23.5546  27.0509

          k = 0.4073 0.4073 0.2036 (   180 PWs)   bands (ev):

     8.7814   9.3808  10.8220  11.7642  11.8231  16.7834  20.1029  26.5040

          k = 0.0000-0.0000 0.2036 (   181 PWs)   bands (ev):

     5.9254  10.4661  10.4661  10.7539  11.1254  11.8389  33.2650  35.0766

          k = 0.4073 0.3055 0.3055 (   187 PWs)   bands (ev):

     9.2103   9.5708  10.0252  11.7959  11.8443  17.7093  21.8689  22.9193

          k = 0.0000-0.1018 0.3055 (   184 PWs)   bands (ev):

     7.4002  10.2332  10.2733  11.0462  11.5097  12.0947  28.7065  32.5280

          k = 0.0000-0.2036 0.4073 (   181 PWs)   bands (ev):

     8.3600   9.9313  10.3007  11.4191  12.4652  13.2728  23.2181  30.9497

          k = 0.1018-0.1018 0.4073 (   184 PWs)   bands (ev):

     8.5684   9.6985  10.3967  11.1563  12.0517  13.3006  26.3090  26.9569

          k =-0.8146-0.3055-0.3055 (   186 PWs)   bands (ev):

     8.3758   9.8080  10.5741  11.4292  12.9094  15.2285  19.9269  29.7501

          k =-0.7128-0.2036-0.3055 (   186 PWs)   bands (ev):

     8.8605   9.6781  10.1313  11.4884  12.4851  16.0926  21.4976  25.3722

          k =-0.6109-0.2036-0.2036 (   197 PWs)   bands (ev):

     9.3748   9.3748   9.7696  12.0872  12.0872  19.7575  19.7575  21.9672

          k = 0.4073 0.4073 0.4073 (   180 PWs)   bands (ev):

     9.6293   9.6293   9.6293  11.8394  11.8394  21.2615  21.2615  21.2615

          k = 0.0000-0.0000 0.4073 (   184 PWs)   bands (ev):

     8.3950   9.8790  10.8677  10.8677  11.5408  12.9248  29.5153  29.5153

          k = 0.0000-0.1018 0.5091 (   186 PWs)   bands (ev):

     8.8453   9.2910  10.8804  11.2881  12.3479  15.0604  24.3353  27.2444

          k =-0.8146-0.2036-0.2036 (   194 PWs)   bands (ev):

     8.7345   9.2498  10.8129  11.3986  12.8199  17.9072  20.4171  26.3522

          k =-0.7128-0.1018-0.2036 (   192 PWs)   bands (ev):

     8.8309   8.8542  10.9405  11.9750  12.5429  18.2788  22.5708  23.2416

          k = 0.0000-0.0000 0.6109 (   188 PWs)   bands (ev):

     8.5976   8.6505  11.9112  11.9112  12.3521  17.5647  24.7281  24.7281

          k =-0.8146-0.1018-0.1018 (   190 PWs)   bands (ev):

     8.3922   8.4283  12.0572  12.2270  12.7313  20.7907  21.5780  23.7144

          k =-0.8146-0.8146-0.8146 (   188 PWs)   bands (ev):

     8.1531   8.1531  12.6949  12.6949  12.6949  22.6252  22.6252  22.6252

 ------ SPIN DOWN ----------


          k = 0.0000 0.0000 0.0000 (   177 PWs)   bands (ev):

     4.7754  12.9337  12.9337  12.9337  14.8205  14.8205  36.8977  36.8977

          k = 0.1018 0.1018 0.0000 (   189 PWs)   bands (ev):

     5.4013  12.7334  12.8723  13.2913  14.6322  14.8378  34.1031  36.0626

          k = 0.2036 0.2036 0.0000 (   190 PWs)   bands (ev):

     7.0981  12.2734  12.5665  14.2335  14.5044  14.9069  28.9429  33.6198

          k = 0.3055 0.3055 0.0000 (   186 PWs)   bands (ev):

     8.9923  11.8425  12.6543  14.6468  15.0178  15.3278  23.9661  31.5330

          k =-0.4073-0.4073 0.0000 (   186 PWs)   bands (ev):

     9.5892  11.6716  13.5069  14.7092  15.0773  15.8444  21.4515  30.7569

          k = 0.2036 0.1018 0.1018 (   183 PWs)   bands (ev):

     6.5753  12.4857  12.5413  14.0106  14.4118  14.9426  31.4030  32.5099

          k = 0.3055 0.2036 0.1018 (   184 PWs)   bands (ev):

     8.5093  12.0102  12.2124  14.4423  15.0107  15.2717  26.5604  29.9849

          k = 0.4073 0.3055 0.1018 (   182 PWs)   bands (ev):

     9.8166  11.7277  12.5670  14.6411  15.1724  16.5183  22.2654  28.7036

          k = 0.4073 0.2036 0.2036 (   179 PWs)   bands (ev):

    10.1604  11.5812  12.0200  14.5555  15.0972  17.0269  24.5874  25.2005

          k = 0.5091 0.3055 0.2036 (   181 PWs)   bands (ev):

    10.7584  11.6128  11.9091  14.7378  15.0716  18.9918  21.5062  24.3017

          k = 0.2036 0.2036 0.2036 (   180 PWs)   bands (ev):

     8.1409  11.9842  11.9842  14.8003  14.8003  15.2502  29.1592  29.1592

          k = 0.3055 0.3055 0.2036 (   180 PWs)   bands (ev):

     9.9478  11.6011  11.7830  14.8420  15.0279  16.8181  24.4936  27.6209

          k = 0.4073 0.4073 0.2036 (   180 PWs)   bands (ev):

    10.4269  11.4699  12.2539  14.8981  15.1002  18.2128  21.5258  27.0691

          k = 0.0000-0.0000 0.2036 (   181 PWs)   bands (ev):

     6.0050  12.9122  12.9122  13.2984  14.1129  15.0667  33.3685  35.4494

          k = 0.4073 0.3055 0.3055 (   187 PWs)   bands (ev):

    11.0065  11.4307  11.6341  14.9938  15.0901  19.1921  22.8893  23.7816

          k = 0.0000-0.1018 0.3055 (   184 PWs)   bands (ev):

     7.6283  12.6119  12.6330  13.8203  14.1488  15.2462  29.3742  32.7644

          k = 0.0000-0.2036 0.4073 (   181 PWs)   bands (ev):

     9.4374  12.2096  12.2345  14.2062  15.2647  15.6717  24.2863  31.1669

          k = 0.1018-0.1018 0.4073 (   184 PWs)   bands (ev):

     9.3016  11.9987  12.6587  13.8392  14.8926  15.8032  27.1658  27.6350

          k =-0.8146-0.3055-0.3055 (   186 PWs)   bands (ev):

    10.0213  12.0816  12.3897  14.2903  15.8007  16.6116  21.4738  30.5826

          k =-0.7128-0.2036-0.3055 (   186 PWs)   bands (ev):

    10.5196  11.6369  12.3480  14.2332  15.3181  17.7037  22.6699  26.1064

          k =-0.6109-0.2036-0.2036 (   197 PWs)   bands (ev):

    11.3375  11.3375  11.8570  14.8764  14.8764  20.9539  20.9539  22.9316

          k = 0.4073 0.4073 0.4073 (   180 PWs)   bands (ev):

    11.4156  11.4156  11.4156  15.1234  15.1234  22.2950  22.2950  22.2950

          k = 0.0000-0.0000 0.4073 (   184 PWs)   bands (ev):

     8.9542  12.4363  13.2755  13.2755  14.2047  15.6529  30.2014  30.2014

          k = 0.0000-0.1018 0.5091 (   186 PWs)   bands (ev):

    10.2426  11.5358  13.2938  13.8113  15.1260  16.8244  25.2141  27.8710

          k =-0.8146-0.2036-0.2036 (   194 PWs)   bands (ev):

    10.7059  11.2000  13.2151  13.9295  15.6960  18.9941  21.6475  26.9109

          k =-0.7128-0.1018-0.2036 (   192 PWs)   bands (ev):

    10.7541  10.9684  13.2942  14.6094  15.3379  19.4236  23.4665  23.9596

          k = 0.0000-0.0000 0.6109 (   188 PWs)   bands (ev):

    10.4486  10.8550  14.4851  14.4851  15.1485  18.6158  25.2335  25.2335

          k =-0.8146-0.1018-0.1018 (   190 PWs)   bands (ev):

    10.4735  10.4904  14.7067  14.8774  15.5927  21.4417  22.2286  24.1009

          k =-0.8146-0.8146-0.8146 (   188 PWs)   bands (ev):

    10.2333  10.2333  15.5502  15.5502  15.5502  22.8349  22.8349  22.8349

     the Fermi energy is    12.8052 ev

!    total energy              =     -55.80125451 Ry
     estimated scf accuracy    <          5.6E-10 Ry
     smearing contrib. (-TS)   =       0.00029441 Ry
     internal energy E=F+TS    =     -55.80154892 Ry

     The total energy is F=E-TS. E is the sum of the following terms:
     one-electron contribution =       6.86693818 Ry
     hartree contribution      =       6.71980314 Ry
     xc contribution           =     -26.45161340 Ry
     ewald contribution        =     -42.93667684 Ry

     total magnetization       =     2.46 Bohr mag/cell
     absolute magnetization    =     2.64 Bohr mag/cell

     convergence has been achieved in   7 iterations

     Forces acting on atoms (cartesian axes, Ry/au):

     atom    1 type  1   force =     0.00000000    0.00000000    0.00000000

     Total force =     0.000000     Total SCF correction =     0.000000


     Computing stress (Cartesian axis) and pressure

          total   stress  (Ry/bohr**3)                   (kbar)     P=      -15.98
  -0.00010861   0.00000000   0.00000000          -15.98        0.00        0.00
   0.00000000  -0.00010861   0.00000000            0.00      -15.98        0.00
   0.00000000   0.00000000  -0.00010861            0.00        0.00      -15.98

     Energy error            =      1.7E-04 Ry
     Gradient error          =      0.0E+00 Ry/Bohr
     Cell gradient error     =      1.6E+01 kbar

     number of scf cycles    =   3
     number of bfgs steps    =   2

     enthalpy           old  =     -55.8010887769 Ry
     enthalpy           new  =     -55.8012545102 Ry

     CASE: enthalpy          _new < enthalpy          _old

     new trust radius        =       0.0118884057 bohr
     new conv_thr            =       0.0000000010 Ry

     new unit-cell volume =     78.22694 a.u.^3 (    11.59204 Ang^3 )
     density =      7.99970 g/cm^3

CELL_PARAMETERS (angstrom)
  -1.425716762   1.425716762   1.425716762
   1.425716762  -1.425716762   1.425716762
   1.425716762   1.425716762  -1.425716762

ATOMIC_POSITIONS (angstrom)
Fe               0.0000000000        0.0000000000        0.0000000000


     Message from routine punch:
     Nothing written, as per user request (disk_io='none')
     NEW-OLD atomic charge density approx. for the potential
     New effective cutoffs (rho, wfc):  266.50   26.90

     Check: negative core charge=   -0.000003
     Generating pointlists ...

     total cpu time spent up to now is        4.6 secs

     Self-consistent Calculation

     iteration #  1     ecut=    30.00 Ry     beta= 0.50
     Davidson diagonalization with overlap
     ethr =  1.00E-06,  avg # of iterations =  4.1

     total cpu time spent up to now is        4.7 secs

     total energy              =     -55.80126986 Ry
     estimated scf accuracy    <       0.00004629 Ry

     total magnetization       =     2.43 Bohr mag/cell
     absolute magnetization    =     2.61 Bohr mag/cell

     iteration #  2     ecut=    30.00 Ry     beta= 0.50
     Davidson diagonalization with overlap
     ethr =  5.79E-07,  avg # of iterations =  1.0

     total cpu time spent up to now is        4.8 secs

     total energy              =     -55.80128155 Ry
     estimated scf accuracy    <       0.00002472 Ry

     total magnetization       =     2.42 Bohr mag/cell
     absolute magnetization    =     2.60 Bohr mag/cell

     iteration #  3     ecut=    30.00 Ry     beta= 0.50
     Davidson diagonalization with overlap
     ethr =  3.09E-07,  avg # of iterations =  1.5

     total cpu time spent up to now is        4.9 secs

     total energy              =     -55.80130918 Ry
     estimated scf accuracy    <       0.00000114 Ry

     total magnetization       =     2.40 Bohr mag/cell
     absolute magnetization    =     2.58 Bohr mag/cell

     iteration #  4     ecut=    30.00 Ry     beta= 0.50
     Davidson diagonalization with overlap
     ethr =  1.42E-08,  avg # of iterations =  2.2

     total cpu time spent up to now is        5.0 secs

     total energy              =     -55.80131027 Ry
     estimated scf accuracy    <       0.00000049 Ry

     total magnetization       =     2.40 Bohr mag/cell
     absolute magnetization    =     2.57 Bohr mag/cell

     iteration #  5     ecut=    30.00 Ry     beta= 0.50
     Davidson diagonalization with overlap
     ethr =  6.19E-09,  avg # of iterations =  1.6

     total cpu time spent up to now is        5.1 secs

     total energy              =     -55.80131067 Ry
     estimated scf accuracy    <       0.00000004 Ry

     total magnetization       =     2.40 Bohr mag/cell
     absolute magnetization    =     2.57 Bohr mag/cell

     iteration #  6     ecut=    30.00 Ry     beta= 0.50
     Davidson diagonalization with overlap
     ethr =  4.94E-10,  avg # of iterations =  3.6

     total cpu time spent up to now is        5.2 secs

     total energy              =     -55.80131074 Ry
     estimated scf accuracy    <          3.1E-09 Ry

     total magnetization       =     2.40 Bohr mag/cell
     absolute magnetization    =     2.57 Bohr mag/cell

     iteration #  7     ecut=    30.00 Ry     beta= 0.50
     Davidson diagonalization with overlap
     ethr =  3.90E-11,  avg # of iterations =  3.9

     Magnetic moment per site  (integrated on atomic sphere of radius R)
     atom   1 (R=0.413)  charge=  6.1792  magn=  2.4633

     total cpu time spent up to now is        5.4 secs

     End of self-consistent calculation

 ------ SPIN UP ------------


          k = 0.0000 0.0000 0.0000 (   177 PWs)   bands (ev):

     4.9484  10.7650  10.7650  10.7650  11.9915  11.9915  37.7850  37.7850

          k = 0.1025 0.1025 0.0000 (   189 PWs)   bands (ev):

     5.5779  10.6044  10.7423  11.0932  11.8578  12.0057  34.5086  36.7753

          k = 0.2050 0.2050 0.0000 (   190 PWs)   bands (ev):

     7.1764  10.2306  10.6889  11.8219  11.9467  12.0562  28.8349  34.1950

          k = 0.3075 0.3075 0.0000 (   186 PWs)   bands (ev):

     8.2470   9.8751  11.7811  12.1306  12.1834  12.9124  23.3762  32.1282

          k =-0.4100-0.4100 0.0000 (   186 PWs)   bands (ev):

     8.3044   9.7326  12.0360  12.1689  13.3561  13.8761  20.3477  31.3759

          k = 0.2050 0.1025 0.1025 (   183 PWs)   bands (ev):

     6.7260  10.4343  10.4793  11.7158  11.7833  12.1005  31.5384  32.7068

          k = 0.3075 0.2050 0.1025 (   184 PWs)   bands (ev):

     8.2784  10.0515  10.5393  11.8096  12.2172  13.0638  26.2730  30.0833

          k = 0.4100 0.3075 0.1025 (   182 PWs)   bands (ev):

     8.6122   9.8199  11.3889  11.9999  12.5531  14.9751  21.4455  28.8049

          k = 0.4100 0.2050 0.2050 (   179 PWs)   bands (ev):

     9.1725   9.8308  10.4755  11.9319  12.3645  15.4151  24.1344  24.9896

          k = 0.5125 0.3075 0.2050 (   181 PWs)   bands (ev):

     9.2595   9.8678  10.5188  12.0936  12.4197  18.0680  20.6727  24.0205

          k = 0.2050 0.2050 0.2050 (   180 PWs)   bands (ev):

     8.1684  10.0500  10.0500  12.0010  12.0010  13.0958  29.1597  29.1597

          k = 0.3075 0.3075 0.2050 (   180 PWs)   bands (ev):

     9.1353   9.7683  10.4351  12.0678  12.1458  15.0956  24.0885  27.5850

          k = 0.4100 0.4100 0.2050 (   180 PWs)   bands (ev):

     9.0559   9.6744  11.1522  12.1274  12.1858  17.2164  20.6262  27.0315

          k = 0.0000-0.0000 0.2050 (   181 PWs)   bands (ev):

     6.1777  10.7957  10.7957  11.0932  11.4607  12.2010  33.7954  35.7014

          k = 0.4100 0.3075 0.3075 (   187 PWs)   bands (ev):

     9.4988   9.8669  10.3349  12.1590  12.2084  18.1696  22.3664  23.4689

          k = 0.0000-0.1025 0.3075 (   184 PWs)   bands (ev):

     7.6683  10.5547  10.5861  11.3866  11.8723  12.4653  29.2764  33.0955

          k = 0.0000-0.2050 0.4100 (   181 PWs)   bands (ev):

     8.6263  10.2426  10.6082  11.7723  12.8585  13.6613  23.7590  31.4929

          k = 0.1025-0.1025 0.4100 (   184 PWs)   bands (ev):

     8.8443   9.9897  10.7204  11.5030  12.4292  13.6987  26.8553  27.5412

          k =-0.8200-0.3075-0.3075 (   186 PWs)   bands (ev):

     8.6359  10.1153  10.8889  11.7827  13.3175  15.6227  20.4558  30.3639

          k =-0.7175-0.2050-0.3075 (   186 PWs)   bands (ev):

     9.1317   9.9698  10.4440  11.8457  12.8769  16.5241  22.0203  25.9264

          k =-0.6150-0.2050-0.2050 (   197 PWs)   bands (ev):

     9.6550   9.6550  10.0759  12.4654  12.4654  20.2329  20.2329  22.5170

          k = 0.4100 0.4100 0.4100 (   180 PWs)   bands (ev):

     9.9290   9.9290   9.9290  12.2028  12.2028  21.7518  21.7518  21.7518

          k = 0.0000-0.0000 0.4100 (   184 PWs)   bands (ev):

     8.6685  10.1713  11.2082  11.2082  11.9042  13.3158  30.1250  30.1250

          k = 0.0000-0.1025 0.5125 (   186 PWs)   bands (ev):

     9.1144   9.5660  11.2210  11.6402  12.7372  15.4811  24.8798  27.8228

          k =-0.8200-0.2050-0.2050 (   194 PWs)   bands (ev):

     8.9956   9.5244  11.1512  11.7538  13.2250  18.3482  20.9354  26.9153

          k =-0.7175-0.1025-0.2050 (   192 PWs)   bands (ev):

     9.0919   9.1178  11.2826  12.3502  12.9379  18.7385  23.0810  23.7808

          k = 0.0000-0.0000 0.6150 (   188 PWs)   bands (ev):

     8.8538   8.9048  12.2846  12.2846  12.7416  18.0137  25.2644  25.2644

          k =-0.8200-0.1025-0.1025 (   190 PWs)   bands (ev):

     8.6394   8.6772  12.4358  12.6109  13.1334  21.2675  22.0816  24.2304

          k =-0.8200-0.8200-0.8200 (   188 PWs)   bands (ev):

     8.3931   8.3931  13.0958  13.0958  13.0958  23.1175  23.1175  23.1175

 ------ SPIN DOWN ----------


          k = 0.0000 0.0000 0.0000 (   177 PWs)   bands (ev):

     5.0098  13.1826  13.1826  13.1826  15.1317  15.1317  37.4430  37.4430

          k = 0.1025 0.1025 0.0000 (   189 PWs)   bands (ev):

     5.6454  12.9776  13.1209  13.5491  14.9378  15.1494  34.6680  36.6214

          k = 0.2050 0.2050 0.0000 (   190 PWs)   bands (ev):

     7.3617  12.5071  12.8186  14.5147  14.8043  15.2204  29.5013  34.1753

          k = 0.3075 0.3075 0.0000 (   186 PWs)   bands (ev):

     9.2405  12.0669  12.9513  14.9493  15.3344  15.6359  24.4856  32.0646

          k =-0.4100-0.4100 0.0000 (   186 PWs)   bands (ev):

     9.8049  11.8923  13.8571  15.0145  15.3956  16.1652  21.9437  31.2774

          k = 0.2050 0.1025 0.1025 (   183 PWs)   bands (ev):

     6.8351  12.7256  12.7845  14.2874  14.7104  15.2571  31.9597  33.0951

          k = 0.3075 0.2050 0.1025 (   184 PWs)   bands (ev):

     8.7791  12.2425  12.4619  14.7394  15.3218  15.5896  27.1007  30.5466

          k = 0.4100 0.3075 0.1025 (   182 PWs)   bands (ev):

    10.0469  11.9523  12.8665  14.9437  15.4918  16.8717  22.7651  29.2503

          k = 0.4100 0.2050 0.2050 (   179 PWs)   bands (ev):

    10.4184  11.8184  12.2674  14.8546  15.4135  17.3975  25.0915  25.7461

          k = 0.5125 0.3075 0.2050 (   181 PWs)   bands (ev):

    10.9882  11.8460  12.1803  15.0422  15.3847  19.4082  21.9874  24.8264

          k = 0.2050 0.2050 0.2050 (   180 PWs)   bands (ev):

     8.4159  12.2165  12.2165  15.1095  15.1095  15.5625  29.7019  29.7019

          k = 0.3075 0.3075 0.2050 (   180 PWs)   bands (ev):

    10.2120  11.8263  12.0334  15.1515  15.3444  17.1775  25.0106  28.1459

          k = 0.4100 0.4100 0.2050 (   180 PWs)   bands (ev):

    10.6551  11.6927  12.5391  15.2091  15.4193  18.6078  22.0142  27.5865

          k = 0.0000-0.0000 0.2050 (   181 PWs)   bands (ev):

     6.2578  13.1619  13.1619  13.5557  14.4050  15.3852  33.9118  36.0545

          k = 0.4100 0.3075 0.3075 (   187 PWs)   bands (ev):

    11.2426  11.6691  11.8868  15.3080  15.4082  19.6118  23.3666  24.3121

          k = 0.0000-0.1025 0.3075 (   184 PWs)   bands (ev):

     7.8980  12.8549  12.8852  14.1009  14.4275  15.5722  29.9354  33.3360

          k = 0.0000-0.2050 0.4100 (   181 PWs)   bands (ev):

     9.6923  12.4692  12.4787  14.4963  15.5711  16.0181  24.8087  31.7156

          k = 0.1025-0.1025 0.4100 (   184 PWs)   bands (ev):

     9.5734  12.2407  12.9085  14.1171  15.1930  16.1514  27.7035  28.2025

          k =-0.8200-0.3075-0.3075 (   186 PWs)   bands (ev):

    10.2431  12.3129  12.6828  14.5842  16.1203  16.9891  21.9655  30.9417

          k =-0.7175-0.2050-0.3075 (   186 PWs)   bands (ev):

    10.7606  11.8906  12.5934  14.5222  15.6319  18.1032  23.1712  26.6464

          k =-0.6150-0.2050-0.2050 (   197 PWs)   bands (ev):

    11.5828  11.5828  12.0944  15.1793  15.1793  21.4120  21.4120  23.4548

          k = 0.4100 0.4100 0.4100 (   180 PWs)   bands (ev):

    11.6556  11.6556  11.6556  15.4431  15.4431  22.7620  22.7620  22.7620

          k = 0.0000-0.0000 0.4100 (   184 PWs)   bands (ev):

     9.2294  12.6876  13.5372  13.5372  14.4836  15.9994  30.7925  30.7925

          k = 0.0000-0.1025 0.5125 (   186 PWs)   bands (ev):

    10.4984  11.7712  13.5556  14.0890  15.4287  17.2137  25.7445  28.4328

          k =-0.8200-0.2050-0.2050 (   194 PWs)   bands (ev):

    10.9320  11.4462  13.4749  14.2136  16.0129  19.4241  22.1385  27.4586

          k =-0.7175-0.1025-0.2050 (   192 PWs)   bands (ev):

    10.9891  11.1934  13.5604  14.9039  15.6483  19.8654  23.9651  24.4807

          k = 0.0000-0.0000 0.6150 (   188 PWs)   bands (ev):

    10.6782  11.0726  14.7764  14.7764  15.4512  19.0492  25.7561  25.7561

          k =-0.8200-0.1025-0.1025 (   190 PWs)   bands (ev):

    10.6894  10.7030  15.0016  15.1785  15.9069  21.9105  22.7179  24.6057

          k =-0.8200-0.8200-0.8200 (   188 PWs)   bands (ev):

    10.4386  10.4386  15.8634  15.8634  15.8634  23.3198  23.3198  23.3198

     the Fermi energy is    13.1457 ev

!    total energy              =     -55.80131077 Ry
     estimated scf accuracy    <          3.4E-10 Ry
     smearing contrib. (-TS)   =       0.00041038 Ry
     internal energy E=F+TS    =     -55.80172115 Ry

     The total energy is F=E-TS. E is the sum of the following terms:
     one-electron contribution =       7.27149084 Ry
     hartree contribution      =       6.60706965 Ry
     xc contribution           =     -26.45600128 Ry
     ewald contribution        =     -43.22428036 Ry

     total magnetization       =     2.40 Bohr mag/cell
     absolute magnetization    =     2.57 Bohr mag/cell

     convergence has been achieved in   7 iterations

     Forces acting on atoms (cartesian axes, Ry/au):

     atom    1 type  1   force =     0.00000000    0.00000000    0.00000000

     Total force =     0.000000     Total SCF correction =     0.000000


     Computing stress (Cartesian axis) and pressure

          total   stress  (Ry/bohr**3)                   (kbar)     P=        7.68
   0.00005220   0.00000000   0.00000000            7.68        0.00        0.00
   0.00000000   0.00005220   0.00000000            0.00        7.68        0.00
   0.00000000   0.00000000   0.00005220            0.00        0.00        7.68

     Energy error            =      5.6E-05 Ry
     Gradient error          =      0.0E+00 Ry/Bohr
     Cell gradient error     =      7.7E+00 kbar

     number of scf cycles    =   4
     number of bfgs steps    =   3

     enthalpy           old  =     -55.8012545102 Ry
     enthalpy           new  =     -55.8013107690 Ry

     CASE: enthalpy          _new < enthalpy          _old

     new trust radius        =       0.0038115662 bohr
     new conv_thr            =       0.0000000010 Ry

     new unit-cell volume =     78.73371 a.u.^3 (    11.66713 Ang^3 )
     density =      7.94821 g/cm^3

CELL_PARAMETERS (angstrom)
  -1.428788814   1.428788814   1.428788814
   1.428788814  -1.428788814   1.428788814
   1.428788814   1.428788814  -1.428788814

ATOMIC_POSITIONS (angstrom)
Fe               0.0000000000        0.0000000000        0.0000000000


     Message from routine punch:
     Nothing written, as per user request (disk_io='none')
     NEW-OLD atomic charge density approx. for the potential
     New effective cutoffs (rho, wfc):  265.35   26.78

     Check: negative core charge=   -0.000003
     Generating pointlists ...

     total cpu time spent up to now is        5.5 secs

     Self-consistent Calculation

     iteration #  1     ecut=    30.00 Ry     beta= 0.50
     Davidson diagonalization with overlap
     ethr =  1.00E-06,  avg # of iterations =  3.1

     Threshold (ethr) on eigenvalues was too large:
     Diagonalizing with lowered threshold

     Davidson diagonalization with overlap
     ethr =  4.40E-08,  avg # of iterations =  1.7

     total cpu time spent up to now is        5.7 secs

     total energy              =     -55.80131928 Ry
     estimated scf accuracy    <       0.00000354 Ry

     total magnetization       =     2.41 Bohr mag/cell
     absolute magnetization    =     2.58 Bohr mag/cell

     iteration #  2     ecut=    30.00 Ry     beta= 0.50
     Davidson diagonalization with overlap
     ethr =  4.42E-08,  avg # of iterations =  1.0

     total cpu time spent up to now is        5.8 secs

     total energy              =     -55.80132041 Ry
     estimated scf accuracy    <       0.00000185 Ry

     total magnetization       =     2.41 Bohr mag/cell
     absolute magnetization    =     2.58 Bohr mag/cell

     iteration #  3     ecut=    30.00 Ry     beta= 0.50
     Davidson diagonalization with overlap
     ethr =  2.32E-08,  avg # of iterations =  1.5

     total cpu time spent up to now is        5.9 secs

     total energy              =     -55.80132200 Ry
     estimated scf accuracy    <       0.00000017 Ry

     total magnetization       =     2.41 Bohr mag/cell
     absolute magnetization    =     2.59 Bohr mag/cell

     iteration #  4     ecut=    30.00 Ry     beta= 0.50
     Davidson diagonalization with overlap
     ethr =  2.09E-09,  avg # of iterations =  1.6

     total cpu time spent up to now is        6.0 secs

     total energy              =     -55.80132201 Ry
     estimated scf accuracy    <       0.00000006 Ry

     total magnetization       =     2.41 Bohr mag/cell
     absolute magnetization    =     2.59 Bohr mag/cell

     iteration #  5     ecut=    30.00 Ry     beta= 0.50
     Davidson diagonalization with overlap
     ethr =  7.13E-10,  avg # of iterations =  2.2

     total cpu time spent up to now is        6.1 secs

     total energy              =     -55.80132218 Ry
     estimated scf accuracy    <          3.1E-09 Ry

     total magnetization       =     2.41 Bohr mag/cell
     absolute magnetization    =     2.59 Bohr mag/cell

     iteration #  6     ecut=    30.00 Ry     beta= 0.50
     Davidson diagonalization with overlap
     ethr =  3.90E-11,  avg # of iterations =  3.2

     total cpu time spent up to now is        6.3 secs

     total energy              =     -55.80132218 Ry
     estimated scf accuracy    <          2.7E-09 Ry

     total magnetization       =     2.41 Bohr mag/cell
     absolute magnetization    =     2.59 Bohr mag/cell

     iteration #  7     ecut=    30.00 Ry     beta= 0.50
     Davidson diagonalization with overlap
     ethr =  3.37E-11,  avg # of iterations =  1.5

     Magnetic moment per site  (integrated on atomic sphere of radius R)
     atom   1 (R=0.413)  charge=  6.1734  magn=  2.4803

     total cpu time spent up to now is        6.3 secs

     End of self-consistent calculation

 ------ SPIN UP ------------


          k = 0.0000 0.0000 0.0000 (   177 PWs)   bands (ev):

     4.8726  10.6594  10.6594  10.6594  11.8766  11.8766  37.6130  37.6130

          k = 0.1023 0.1023 0.0000 (   189 PWs)   bands (ev):

     5.4990  10.5005  10.6372  10.9843  11.7443  11.8907  34.3255  36.5974

          k = 0.2046 0.2046 0.0000 (   190 PWs)   bands (ev):

     7.0914  10.1308  10.5860  11.7079  11.8295  11.9404  28.6510  34.0181

          k = 0.3069 0.3069 0.0000 (   186 PWs)   bands (ev):

     8.1633   9.7789  11.6705  12.0138  12.0688  12.7855  23.2014  31.9592

          k =-0.4091-0.4091 0.0000 (   186 PWs)   bands (ev):

     8.2226   9.6379  11.9191  12.0515  13.2246  13.7645  20.1754  31.2106

          k = 0.2046 0.1023 0.1023 (   183 PWs)   bands (ev):

     6.6421  10.3324  10.3777  11.6036  11.6678  11.9842  31.3575  32.5138

          k = 0.3069 0.2046 0.1023 (   184 PWs)   bands (ev):

     8.1909   9.9540  10.4381  11.6955  12.0991  12.9377  26.0939  29.8981

          k = 0.4091 0.3069 0.1023 (   182 PWs)   bands (ev):

     8.5275   9.7244  11.2817  11.8836  12.4319  14.8433  21.2745  28.6244

          k = 0.4091 0.2046 0.2046 (   179 PWs)   bands (ev):

     9.0821   9.7371  10.3748  11.8163  12.2445  15.2767  23.9668  24.8072

          k = 0.5114 0.3069 0.2046 (   181 PWs)   bands (ev):

     9.1696   9.7729  10.4193  11.9763  12.2990  17.9240  20.5074  23.8450

          k = 0.2046 0.2046 0.2046 (   180 PWs)   bands (ev):

     8.0787   9.9527   9.9527  11.8854  11.8854  12.9689  28.9821  28.9821

          k = 0.3069 0.3069 0.2046 (   180 PWs)   bands (ev):

     9.0450   9.6735  10.3346  11.9511  12.0286  14.9577  23.9158  27.4122

          k = 0.4091 0.4091 0.2046 (   180 PWs)   bands (ev):

     8.9677   9.5804  11.0461  12.0099  12.0682  17.0764  20.4570  26.8609

          k = 0.0000-0.0000 0.2046 (   181 PWs)   bands (ev):

     6.0961  10.6901  10.6901  10.9844  11.3520  12.0835  33.6236  35.4997

          k = 0.4091 0.3069 0.3069 (   187 PWs)   bands (ev):

     9.4063   9.7718  10.2354  12.0414  12.0904  18.0208  22.2055  23.2912

          k = 0.0000-0.1023 0.3069 (   184 PWs)   bands (ev):

     7.5816  10.4517  10.4853  11.2769  11.7560  12.3452  29.0921  32.9118

          k = 0.0000-0.2046 0.4091 (   181 PWs)   bands (ev):

     8.5405  10.1429  10.5087  11.6584  12.7322  13.5355  23.5840  30.9968

          k = 0.1023-0.1023 0.4091 (   184 PWs)   bands (ev):

     8.7552   9.8957  10.6165  11.3914  12.3077  13.5699  26.6785  27.3523

          k =-0.8183-0.3069-0.3069 (   186 PWs)   bands (ev):

     8.5522  10.0169  10.7870  11.6686  13.1864  15.4950  20.2847  30.1654

          k =-0.7160-0.2046-0.3069 (   186 PWs)   bands (ev):

     9.0443   9.8756  10.3435  11.7307  12.7509  16.3845  21.8512  25.7471

          k =-0.6137-0.2046-0.2046 (   197 PWs)   bands (ev):

     9.5644   9.5644   9.9777  12.3437  12.3437  20.0790  20.0790  22.3393

          k = 0.4091 0.4091 0.4091 (   180 PWs)   bands (ev):

     9.8328   9.8328   9.8328  12.0850  12.0850  21.5932  21.5932  21.5932

          k = 0.0000-0.0000 0.4091 (   184 PWs)   bands (ev):

     8.5800  10.0767  11.0990  11.0990  11.7876  13.1890  29.9279  29.9279

          k = 0.0000-0.1023 0.5114 (   186 PWs)   bands (ev):

     9.0274   9.4771  11.1118  11.5271  12.6121  15.3448  24.7036  27.6358

          k =-0.8183-0.2046-0.2046 (   194 PWs)   bands (ev):

     8.9113   9.4355  11.0427  11.6396  13.0949  18.2054  20.7677  26.7333

          k =-0.7160-0.1023-0.2046 (   192 PWs)   bands (ev):

     9.0075   9.0325  11.1728  12.2297  12.8110  18.5896  22.9159  23.6065

          k = 0.0000 0.0000 0.6137 (   188 PWs)   bands (ev):

     8.7709   8.8226  12.1647  12.1647  12.6165  17.8683  25.0910  25.0910

          k =-0.8183-0.1023-0.1023 (   190 PWs)   bands (ev):

     8.5595   8.5967  12.3142  12.4876  13.0042  21.1131  21.9187  24.0636

          k =-0.8183-0.8183-0.8183 (   188 PWs)   bands (ev):

     8.3155   8.3155  12.9670  12.9670  12.9670  22.9584  22.9584  22.9584

 ------ SPIN DOWN ----------


          k = 0.0000 0.0000 0.0000 (   177 PWs)   bands (ev):

     4.9331  13.0982  13.0982  13.0982  15.0284  15.0284  37.2663  37.2663

          k = 0.1023 0.1023 0.0000 (   189 PWs)   bands (ev):

     5.5656  12.8948  13.0367  13.4617  14.8364  15.0460  34.4844  36.4403

          k = 0.2046 0.2046 0.0000 (   190 PWs)   bands (ev):

     7.2754  12.4279  12.7339  14.4196  14.7045  15.1164  29.3191  33.9952

          k = 0.3069 0.3069 0.0000 (   186 PWs)   bands (ev):

     9.1589  11.9908  12.8532  14.8483  15.2293  15.5318  24.3152  31.8923

          k =-0.4091-0.4091 0.0000 (   186 PWs)   bands (ev):

     9.7332  11.8174  13.7430  14.9127  15.2900  16.0569  21.7815  31.1088

          k = 0.2046 0.1023 0.1023 (   183 PWs)   bands (ev):

     6.7501  12.6444  12.7023  14.1938  14.6111  15.1527  31.7784  32.9047

          k = 0.3069 0.2046 0.1023 (   184 PWs)   bands (ev):

     8.6907  12.1640  12.3782  14.6403  15.2179  15.4831  26.9240  30.3636

          k = 0.4091 0.3069 0.1023 (   182 PWs)   bands (ev):

     9.9705  11.8763  12.7678  14.8428  15.3855  16.7537  22.6008  29.0722

          k = 0.4091 0.2046 0.2046 (   179 PWs)   bands (ev):

    10.3333  11.7391  12.1843  14.7548  15.3081  17.2741  24.9264  25.5678

          k = 0.5114 0.3069 0.2046 (   181 PWs)   bands (ev):

    10.9115  11.7676  12.0906  14.9406  15.2802  19.2707  21.8291  24.6547

          k = 0.2046 0.2046 0.2046 (   180 PWs)   bands (ev):

     8.3259  12.1381  12.1381  15.0068  15.0068  15.4573  29.5249  29.5249

          k = 0.3069 0.3069 0.2046 (   180 PWs)   bands (ev):

    10.1250  11.7502  11.9497  15.0485  15.2393  17.0573  24.8413  27.9745

          k = 0.4091 0.4091 0.2046 (   180 PWs)   bands (ev):

    10.5790  11.6174  12.4447  15.1055  15.3134  18.4768  21.8534  27.4176

          k = 0.0000-0.0000 0.2046 (   181 PWs)   bands (ev):

     6.1751  13.0773  13.0773  13.4685  14.3081  15.2796  33.7353  35.8575

          k = 0.4091 0.3069 0.3069 (   187 PWs)   bands (ev):

    11.1637  11.5893  11.8024  15.2035  15.3025  19.4730  23.2099  24.1385

          k = 0.0000-0.1023 0.3069 (   184 PWs)   bands (ev):

     7.8098  12.7726  12.8006  14.0073  14.3332  15.4641  29.7523  33.1504

          k = 0.0000-0.2046 0.4091 (   181 PWs)   bands (ev):

     9.6086  12.3896  12.3897  14.3993  15.4676  15.9034  24.6375  31.5375

          k = 0.1023-0.1023 0.4091 (   184 PWs)   bands (ev):

     9.4844  12.1601  12.8242  14.0239  15.0918  16.0359  27.5277  28.0172

          k =-0.8183-0.3069-0.3069 (   186 PWs)   bands (ev):

    10.1694  12.2346  12.5867  14.4861  16.0124  16.8648  21.8035  30.7466

          k =-0.7160-0.2046-0.3069 (   186 PWs)   bands (ev):

    10.6809  11.8067  12.5107  14.4254  15.5264  17.9713  23.0066  26.4699

          k =-0.6137-0.2046-0.2046 (   197 PWs)   bands (ev):

    11.5017  11.5017  12.0144  15.0775  15.0775  21.2615  21.2615  23.2834

          k = 0.4091 0.4091 0.4091 (   180 PWs)   bands (ev):

    11.5752  11.5752  11.5752  15.3369  15.3369  22.6085  22.6085  22.6085

          k = 0.0000-0.0000 0.4091 (   184 PWs)   bands (ev):

     9.1394  12.6044  13.4488  13.4488  14.3892  15.8847  30.5993  30.5993

          k = 0.0000-0.1023 0.5114 (   186 PWs)   bands (ev):

    10.4144  11.6932  13.4672  13.9956  15.3264  17.0854  25.5709  28.2491

          k =-0.8183-0.2046-0.2046 (   194 PWs)   bands (ev):

    10.8571  11.3650  13.3871  14.1183  15.9059  19.2832  21.9772  27.2796

          k =-0.7160-0.1023-0.2046 (   192 PWs)   bands (ev):

    10.9116  11.1190  13.4707  14.8046  15.5436  19.7204  23.8018  24.3102

          k = 0.0000 0.0000 0.6137 (   188 PWs)   bands (ev):

    10.6025  11.0005  14.6782  14.6782  15.3489  18.9072  25.5853  25.5853

          k =-0.8183-0.1023-0.1023 (   190 PWs)   bands (ev):

    10.6181  10.6327  14.9021  15.0770  15.8007  21.7573  22.5579  24.4408

          k =-0.8183-0.8183-0.8183 (   188 PWs)   bands (ev):

    10.3706  10.3706  15.7576  15.7576  15.7576  23.1617  23.1617  23.1617

     the Fermi energy is    13.0318 ev

!    total energy              =     -55.80132219 Ry
     estimated scf accuracy    <          4.7E-11 Ry
     smearing contrib. (-TS)   =       0.00037638 Ry
     internal energy E=F+TS    =     -55.80169856 Ry

     The total energy is F=E-TS. E is the sum of the following terms:
     one-electron contribution =       7.14063853 Ry
     hartree contribution      =       6.64296047 Ry
     xc contribution           =     -26.45395413 Ry
     ewald contribution        =     -43.13134344 Ry

     total magnetization       =     2.41 Bohr mag/cell
     absolute magnetization    =     2.59 Bohr mag/cell

     convergence has been achieved in   7 iterations

     Forces acting on atoms (cartesian axes, Ry/au):

     atom    1 type  1   force =     0.00000000    0.00000000    0.00000000

     Total force =     0.000000     Total SCF correction =     0.000000


     Computing stress (Cartesian axis) and pressure

          total   stress  (Ry/bohr**3)                   (kbar)     P=       -1.05
  -0.00000715  -0.00000000  -0.00000000           -1.05       -0.00       -0.00
  -0.00000000  -0.00000715  -0.00000000           -0.00       -1.05       -0.00
  -0.00000000  -0.00000000  -0.00000715           -0.00       -0.00       -1.05

     Energy error            =      1.1E-05 Ry
     Gradient error          =      0.0E+00 Ry/Bohr
     Cell gradient error     =      1.1E+00 kbar

     number of scf cycles    =   5
     number of bfgs steps    =   4

     enthalpy           old  =     -55.8013107690 Ry
     enthalpy           new  =     -55.8013221859 Ry

     CASE: enthalpy          _new < enthalpy          _old

     new trust radius        =       0.0004615713 bohr
     new conv_thr            =       0.0000000010 Ry

     new unit-cell volume =     78.67229 a.u.^3 (    11.65803 Ang^3 )
     density =      7.95441 g/cm^3

CELL_PARAMETERS (angstrom)
  -1.428417196   1.428417196   1.428417196
   1.428417196  -1.428417196   1.428417196
   1.428417196   1.428417196  -1.428417196

ATOMIC_POSITIONS (angstrom)
Fe               0.0000000000        0.0000000000        0.0000000000


     Message from routine punch:
     Nothing written, as per user request (disk_io='none')
     NEW-OLD atomic charge density approx. for the potential
     New effective cutoffs (rho, wfc):  265.49   26.79

     Check: negative core charge=   -0.000003
     Generating pointlists ...

     total cpu time spent up to now is        6.5 secs

     Self-consistent Calculation

     iteration #  1     ecut=    30.00 Ry     beta= 0.50
     Davidson diagonalization with overlap
     ethr =  1.00E-06,  avg # of iterations =  2.0

     Threshold (ethr) on eigenvalues was too large:
     Diagonalizing with lowered threshold

     Davidson diagonalization with overlap
     ethr =  8.15E-10,  avg # of iterations =  2.1

[...]

     48 Sym. Ops., with inversion, found



   Cartesian axes

     site n.     atom                  positions (alat units)
         1        Fe     tau(   1) = (   0.0000000   0.0000000   0.0000000  )

     number of k points=    29  Methfessel-Paxton smearing, width (Ry)=  0.0200
                       cart. coord. in units 2pi/alat
        k(    1) = (   0.0000000   0.0000000   0.0000000), wk =   0.0019531
        k(    2) = (   0.1023103   0.1023103   0.0000000), wk =   0.0234375
        k(    3) = (   0.2046206   0.2046206   0.0000000), wk =   0.0234375
        k(    4) = (   0.3069309   0.3069309   0.0000000), wk =   0.0234375
        k(    5) = (  -0.4092412  -0.4092412   0.0000000), wk =   0.0117188
        k(    6) = (   0.2046206   0.1023103   0.1023103), wk =   0.0468750
        k(    7) = (   0.3069309   0.2046206   0.1023103), wk =   0.0937500
        k(    8) = (   0.4092412   0.3069309   0.1023103), wk =   0.0937500
        k(    9) = (   0.4092412   0.2046206   0.2046206), wk =   0.0468750
        k(   10) = (   0.5115515   0.3069309   0.2046206), wk =   0.0468750
        k(   11) = (   0.2046206   0.2046206   0.2046206), wk =   0.0156250
        k(   12) = (   0.3069309   0.3069309   0.2046206), wk =   0.0468750
        k(   13) = (   0.4092412   0.4092412   0.2046206), wk =   0.0234375
        k(   14) = (   0.0000000  -0.0000000   0.2046206), wk =   0.0117188
        k(   15) = (   0.4092412   0.3069309   0.3069309), wk =   0.0468750
        k(   16) = (   0.0000000  -0.1023103   0.3069309), wk =   0.0468750
        k(   17) = (   0.0000000  -0.2046206   0.4092412), wk =   0.0468750
        k(   18) = (   0.1023103  -0.1023103   0.4092412), wk =   0.0468750
        k(   19) = (  -0.8184824  -0.3069309  -0.3069309), wk =   0.0234375
        k(   20) = (  -0.7161721  -0.2046206  -0.3069309), wk =   0.0937500
        k(   21) = (  -0.6138618  -0.2046206  -0.2046206), wk =   0.0156250
        k(   22) = (   0.4092412   0.4092412   0.4092412), wk =   0.0039062
        k(   23) = (   0.0000000  -0.0000000   0.4092412), wk =   0.0117188
        k(   24) = (   0.0000000  -0.1023103   0.5115515), wk =   0.0468750
        k(   25) = (  -0.8184824  -0.2046206  -0.2046206), wk =   0.0234375
        k(   26) = (  -0.7161721  -0.1023103  -0.2046206), wk =   0.0468750
        k(   27) = (   0.0000000  -0.0000000   0.6138618), wk =   0.0117188
        k(   28) = (  -0.8184824  -0.1023103  -0.1023103), wk =   0.0234375
        k(   29) = (  -0.8184824  -0.8184824  -0.8184824), wk =   0.0019531

     Dense  grid:     6819 G-vectors     FFT dimensions: (  25,  25,  25)

     Smooth grid:     1745 G-vectors     FFT dimensions: (  18,  18,  18)

     Estimated max dynamical RAM per process >      17.47 MB

     Estimated total dynamical RAM >      34.93 MB

     Check: negative core charge=   -0.000006
     Generating pointlists ...

     Initial potential from superposition of free atoms

     starting charge       7.9994, renormalised to       8.0000
     Starting wfcs are    6 randomized atomic wfcs +    2 random wfcs

     total cpu time spent up to now is        7.3 secs

     Self-consistent Calculation

     iteration #  1     ecut=    30.00 Ry     beta= 0.50
     Davidson diagonalization with overlap
     c_bands:  1 eigenvalues not converged
     c_bands:  1 eigenvalues not converged
     c_bands:  1 eigenvalues not converged
     c_bands:  1 eigenvalues not converged
     c_bands:  1 eigenvalues not converged
     c_bands:  1 eigenvalues not converged
     c_bands:  3 eigenvalues not converged
     c_bands:  1 eigenvalues not converged
     c_bands:  1 eigenvalues not converged
     c_bands:  1 eigenvalues not converged
     c_bands:  1 eigenvalues not converged
     c_bands:  1 eigenvalues not converged
     c_bands:  1 eigenvalues not converged
     c_bands:  1 eigenvalues not converged
     c_bands:  1 eigenvalues not converged
     c_bands:  1 eigenvalues not converged
     c_bands:  1 eigenvalues not converged
     c_bands:  1 eigenvalues not converged
     ethr =  1.00E-06,  avg # of iterations = 17.6

     total cpu time spent up to now is        7.9 secs

     total energy              =     -55.67314453 Ry
     estimated scf accuracy    <       0.35344319 Ry

     total magnetization       =     2.38 Bohr mag/cell
     absolute magnetization    =     2.38 Bohr mag/cell

     iteration #  2     ecut=    30.00 Ry     beta= 0.50
     Davidson diagonalization with overlap
     ethr =  4.42E-03,  avg # of iterations =  1.9

     total cpu time spent up to now is        8.1 secs

     total energy              =     -55.77805727 Ry
     estimated scf accuracy    <       0.09760645 Ry

     total magnetization       =     2.59 Bohr mag/cell
     absolute magnetization    =     2.60 Bohr mag/cell

     iteration #  3     ecut=    30.00 Ry     beta= 0.50
     Davidson diagonalization with overlap
     ethr =  1.22E-03,  avg # of iterations =  1.0

     total cpu time spent up to now is        8.2 secs

     total energy              =     -55.79946306 Ry
     estimated scf accuracy    <       0.00164720 Ry

     total magnetization       =     2.45 Bohr mag/cell
     absolute magnetization    =     2.50 Bohr mag/cell

     iteration #  4     ecut=    30.00 Ry     beta= 0.50
     Davidson diagonalization with overlap
     ethr =  2.06E-05,  avg # of iterations =  2.6

     total cpu time spent up to now is        8.4 secs

     total energy              =     -55.80184525 Ry
     estimated scf accuracy    <       0.00008212 Ry

     total magnetization       =     2.39 Bohr mag/cell
     absolute magnetization    =     2.54 Bohr mag/cell

     iteration #  5     ecut=    30.00 Ry     beta= 0.50
     Davidson diagonalization with overlap
     ethr =  1.03E-06,  avg # of iterations =  3.3

     total cpu time spent up to now is        8.6 secs

     total energy              =     -55.80193275 Ry
     estimated scf accuracy    <       0.00003012 Ry

     total magnetization       =     2.40 Bohr mag/cell
     absolute magnetization    =     2.57 Bohr mag/cell

     iteration #  6     ecut=    30.00 Ry     beta= 0.50
     Davidson diagonalization with overlap
     ethr =  3.76E-07,  avg # of iterations =  2.5

     total cpu time spent up to now is        8.7 secs

     total energy              =     -55.80195507 Ry
     estimated scf accuracy    <       0.00000246 Ry

     total magnetization       =     2.40 Bohr mag/cell
     absolute magnetization    =     2.58 Bohr mag/cell

     iteration #  7     ecut=    30.00 Ry     beta= 0.50
     Davidson diagonalization with overlap
     ethr =  3.07E-08,  avg # of iterations =  4.1

     total cpu time spent up to now is        8.9 secs

     total energy              =     -55.80195658 Ry
     estimated scf accuracy    <       0.00000612 Ry

     total magnetization       =     2.41 Bohr mag/cell
     absolute magnetization    =     2.58 Bohr mag/cell

     iteration #  8     ecut=    30.00 Ry     beta= 0.50
     Davidson diagonalization with overlap
     ethr =  3.07E-08,  avg # of iterations =  2.3

     total cpu time spent up to now is        9.1 secs

     total energy              =     -55.80195990 Ry
     estimated scf accuracy    <       0.00000048 Ry

     total magnetization       =     2.41 Bohr mag/cell
     absolute magnetization    =     2.59 Bohr mag/cell

     iteration #  9     ecut=    30.00 Ry     beta= 0.50
     Davidson diagonalization with overlap
     ethr =  6.06E-09,  avg # of iterations =  2.1

     total cpu time spent up to now is        9.2 secs

     total energy              =     -55.80196010 Ry
     estimated scf accuracy    <          2.2E-09 Ry

     total magnetization       =     2.41 Bohr mag/cell
     absolute magnetization    =     2.59 Bohr mag/cell

     iteration # 10     ecut=    30.00 Ry     beta= 0.50
     Davidson diagonalization with overlap
     ethr =  2.78E-11,  avg # of iterations =  8.1

     Magnetic moment per site  (integrated on atomic sphere of radius R)
     atom   1 (R=0.413)  charge=  6.1747  magn=  2.4784

     total cpu time spent up to now is        9.5 secs

     End of self-consistent calculation

 ------ SPIN UP ------------


          k = 0.0000 0.0000 0.0000 (   225 PWs)   bands (ev):

     4.8831  10.6691  10.6691  10.6691  11.8882  11.8882  37.6326  37.6326

          k = 0.1023 0.1023 0.0000 (   215 PWs)   bands (ev):

     5.5100  10.5105  10.6474  10.9952  11.7558  11.9022  34.3465  36.6187

          k = 0.2046 0.2046 0.0000 (   219 PWs)   bands (ev):

     7.1027  10.1404  10.5966  11.7192  11.8411  11.9518  28.6725  34.0401

          k = 0.3069 0.3069 0.0000 (   216 PWs)   bands (ev):

     8.1728   9.7884  11.6827  12.0250  12.0815  12.7981  23.2225  31.9807

          k =-0.4092-0.4092 0.0000 (   214 PWs)   bands (ev):

     8.2319   9.6472  11.9309  12.0627  13.2376  13.7794  20.1957  31.2319

          k = 0.2046 0.1023 0.1023 (   216 PWs)   bands (ev):

     6.6535  10.3425  10.3875  11.6148  11.6793  11.9957  31.3768  32.5357

          k = 0.3069 0.2046 0.1023 (   216 PWs)   bands (ev):

     8.2015   9.9636  10.4488  11.7070  12.1108  12.9508  26.1152  29.9205

          k = 0.4092 0.3069 0.1023 (   215 PWs)   bands (ev):

     8.5369   9.7338  11.2931  11.8951  12.4441  14.8586  21.2947  28.6464

          k = 0.4092 0.2046 0.2046 (   221 PWs)   bands (ev):

     9.0920   9.7462  10.3852  11.8279  12.2561  15.2925  23.9866  24.8297

          k = 0.5116 0.3069 0.2046 (   217 PWs)   bands (ev):

     9.1790   9.7823  10.4300  11.9880  12.3111  17.9412  20.5270  23.8666

          k = 0.2046 0.2046 0.2046 (   210 PWs)   bands (ev):

     8.0905   9.9625   9.9625  11.8969  11.8969  12.9822  29.0024  29.0024

          k = 0.3069 0.3069 0.2046 (   221 PWs)   bands (ev):

     9.0550   9.6827  10.3454  11.9624  12.0398  14.9730  23.9365  27.4325

          k = 0.4092 0.4092 0.2046 (   218 PWs)   bands (ev):

     8.9773   9.5895  11.0578  12.0214  12.0794  17.0931  20.4770  26.8809

          k = 0.0000-0.0000 0.2046 (   217 PWs)   bands (ev):

     6.1072  10.7003  10.7003  10.9951  11.3630  12.0951  33.6422  35.5207

          k = 0.4092 0.3069 0.3069 (   222 PWs)   bands (ev):

     9.4156   9.7814  10.2463  12.0526  12.1019  18.0384  22.2246  23.3133

          k = 0.0000-0.1023 0.3069 (   214 PWs)   bands (ev):

     7.5930  10.4617  10.4955  11.2880  11.7676  12.3574  29.1128  32.9335

          k = 0.0000-0.2046 0.4092 (   219 PWs)   bands (ev):

     8.5502  10.1526  10.5192  11.6696  12.7446  13.5497  23.6048  31.0214

          k = 0.1023-0.1023 0.4092 (   222 PWs)   bands (ev):

     8.7658   9.9049  10.6267  11.4026  12.3196  13.5840  26.6987  27.3750

          k =-0.8185-0.3069-0.3069 (   214 PWs)   bands (ev):

     8.5616  10.0267  10.7978  11.6800  13.1994  15.5108  20.3051  30.1904

          k =-0.7162-0.2046-0.3069 (   219 PWs)   bands (ev):

     9.0537   9.8855  10.3535  11.7422  12.7635  16.4012  21.8716  25.7687

          k =-0.6139-0.2046-0.2046 (   221 PWs)   bands (ev):

     9.5740   9.5740   9.9876  12.3559  12.3559  20.0977  20.0977  22.3613

          k = 0.4092 0.4092 0.4092 (   216 PWs)   bands (ev):

     9.8427   9.8427   9.8427  12.0965  12.0965  21.6121  21.6121  21.6121

          k = 0.0000-0.0000 0.4092 (   209 PWs)   bands (ev):

     8.5910  10.0865  11.1103  11.1103  11.7994  13.2029  29.9515  29.9515

          k = 0.0000-0.1023 0.5116 (   219 PWs)   bands (ev):

     9.0371   9.4861  11.1228  11.5384  12.6245  15.3611  24.7248  27.6586

          k =-0.8185-0.2046-0.2046 (   222 PWs)   bands (ev):

     8.9200   9.4451  11.0537  11.6510  13.1078  18.2230  20.7880  26.7561

          k =-0.7162-0.1023-0.2046 (   222 PWs)   bands (ev):

     9.0159   9.0418  11.1838  12.2418  12.8236  18.6079  22.9359  23.6283

          k = 0.0000-0.0000 0.6139 (   228 PWs)   bands (ev):

     8.7799   8.8303  12.1766  12.1766  12.6286  17.8865  25.1127  25.1127

          k =-0.8185-0.1023-0.1023 (   228 PWs)   bands (ev):

     8.5672   8.6050  12.3263  12.5000  13.0169  21.1325  21.9393  24.0849

          k =-0.8185-0.8185-0.8185 (   236 PWs)   bands (ev):

     8.3227   8.3227  12.9796  12.9796  12.9796  22.9791  22.9791  22.9791

 ------ SPIN DOWN ----------


          k = 0.0000 0.0000 0.0000 (   225 PWs)   bands (ev):

     4.9443  13.1051  13.1051  13.1051  15.0384  15.0384  37.2871  37.2871

          k = 0.1023 0.1023 0.0000 (   215 PWs)   bands (ev):

     5.5772  12.9024  13.0445  13.4700  14.8463  15.0560  34.5058  36.4626

          k = 0.2046 0.2046 0.0000 (   219 PWs)   bands (ev):

     7.2876  12.4351  12.7422  14.4284  14.7139  15.1260  29.3407  34.0180

          k = 0.3069 0.3069 0.0000 (   216 PWs)   bands (ev):

     9.1694  11.9982  12.8648  14.8579  15.2386  15.5416  24.3357  31.9145

          k =-0.4092-0.4092 0.0000 (   214 PWs)   bands (ev):

     9.7420  11.8246  13.7585  14.9224  15.2989  16.0669  21.8005  31.1307

          k = 0.2046 0.1023 0.1023 (   216 PWs)   bands (ev):

     6.7622  12.6520  12.7098  14.2026  14.6206  15.1625  31.7984  32.9271

          k = 0.3069 0.2046 0.1023 (   216 PWs)   bands (ev):

     8.7027  12.1715  12.3865  14.6499  15.2276  15.4932  26.9452  30.3861

          k = 0.4092 0.3069 0.1023 (   215 PWs)   bands (ev):

     9.9797  11.8836  12.7798  14.8523  15.3951  16.7659  22.6203  29.0943

          k = 0.4092 0.2046 0.2046 (   221 PWs)   bands (ev):

    10.3440  11.7466  12.1925  14.7642  15.3174  17.2871  24.9458  25.5902

          k = 0.5116 0.3069 0.2046 (   217 PWs)   bands (ev):

    10.9199  11.7751  12.1010  14.9501  15.2900  19.2865  21.8478  24.6762

          k = 0.2046 0.2046 0.2046 (   210 PWs)   bands (ev):

     8.3384  12.1458  12.1458  15.0164  15.0164  15.4676  29.5455  29.5455

          k = 0.3069 0.3069 0.2046 (   221 PWs)   bands (ev):

    10.1362  11.7573  11.9581  15.0577  15.2484  17.0697  24.8617  27.9949

          k = 0.4092 0.4092 0.2046 (   218 PWs)   bands (ev):

    10.5876  11.6243  12.4563  15.1150  15.3224  18.4915  21.8724  27.4376

          k = 0.0000-0.0000 0.2046 (   217 PWs)   bands (ev):

     6.1870  13.0851  13.0851  13.4764  14.3176  15.2893  33.7550  35.8788

          k = 0.4092 0.3069 0.3069 (   222 PWs)   bands (ev):

    11.1724  11.5974  11.8117  15.2126  15.3120  19.4887  23.2283  24.1605

          k = 0.0000-0.1023 0.3069 (   214 PWs)   bands (ev):

     7.8221  12.7802  12.8089  14.0165  14.3421  15.4743  29.7733  33.1728

          k = 0.0000-0.2046 0.4092 (   219 PWs)   bands (ev):

     9.6193  12.3970  12.3992  14.4084  15.4772  15.9147  24.6579  31.5592

          k = 0.1023-0.1023 0.4092 (   222 PWs)   bands (ev):

     9.4962  12.1676  12.8320  14.0329  15.1010  16.0474  27.5481  28.0400

          k =-0.8185-0.3069-0.3069 (   214 PWs)   bands (ev):

    10.1783  12.2422  12.5983  14.4952  16.0224  16.8788  21.8226  30.7715

          k =-0.7162-0.2046-0.3069 (   219 PWs)   bands (ev):

    10.6903  11.8157  12.5187  14.4346  15.5364  17.9862  23.0264  26.4916

          k =-0.6139-0.2046-0.2046 (   221 PWs)   bands (ev):

    11.5107  11.5107  12.0225  15.0873  15.0873  21.2794  21.2794  23.3050

          k = 0.4092 0.4092 0.4092 (   216 PWs)   bands (ev):

    11.5835  11.5835  11.5835  15.3465  15.3465  22.6265  22.6265  22.6265

          k = 0.0000-0.0000 0.4092 (   209 PWs)   bands (ev):

     9.1516  12.6130  13.4578  13.4578  14.3983  15.8961  30.6226  30.6226

          k = 0.0000-0.1023 0.5116 (   219 PWs)   bands (ev):

    10.4247  11.7010  13.4758  14.0046  15.3359  17.1000  25.5920  28.2719

          k =-0.8185-0.2046-0.2046 (   222 PWs)   bands (ev):

    10.8650  11.3744  13.3958  14.1275  15.9158  19.3002  21.9968  27.3025

          k =-0.7162-0.1023-0.2046 (   222 PWs)   bands (ev):

    10.9204  11.1263  13.4795  14.8143  15.5533  19.7381  23.8218  24.3320

          k = 0.0000-0.0000 0.6139 (   228 PWs)   bands (ev):

    10.6111  11.0068  14.6874  14.6874  15.3580  18.9248  25.6071  25.6071

          k =-0.8185-0.1023-0.1023 (   228 PWs)   bands (ev):

    10.6254  10.6391  14.9114  15.0869  15.8103  21.7768  22.5784  24.4624

          k =-0.8185-0.8185-0.8185 (   236 PWs)   bands (ev):

    10.3765  10.3765  15.7670  15.7670  15.7670  23.1829  23.1829  23.1829

     the Fermi energy is    13.0432 ev

!    total energy              =     -55.80196014 Ry
     estimated scf accuracy    <          4.7E-10 Ry
     smearing contrib. (-TS)   =       0.00037786 Ry
     internal energy E=F+TS    =     -55.80233800 Ry

     The total energy is F=E-TS. E is the sum of the following terms:
     one-electron contribution =       7.15567655 Ry
     hartree contribution      =       6.63803255 Ry
     xc contribution           =     -26.45348259 Ry
     ewald contribution        =     -43.14256451 Ry

     total magnetization       =     2.41 Bohr mag/cell
     absolute magnetization    =     2.59 Bohr mag/cell

     convergence has been achieved in  10 iterations

     Forces acting on atoms (cartesian axes, Ry/au):

     atom    1 type  1   force =     0.00000000    0.00000000    0.00000000

     Total force =     0.000000     Total SCF correction =     0.000000


     Computing stress (Cartesian axis) and pressure

          total   stress  (Ry/bohr**3)                   (kbar)     P=       -0.57
  -0.00000390  -0.00000000  -0.00000000           -0.57       -0.00       -0.00
  -0.00000000  -0.00000390  -0.00000000           -0.00       -0.57       -0.00
  -0.00000000  -0.00000000  -0.00000390           -0.00       -0.00       -0.57

     Message from routine punch:
     Nothing written, as per user request (disk_io='none')

     init_run     :      0.50s CPU      0.51s WALL (       2 calls)
     electrons    :      7.03s CPU      7.90s WALL (       7 calls)
     update_pot   :      0.04s CPU      0.04s WALL (       5 calls)
     forces       :      0.15s CPU      0.16s WALL (       7 calls)
     stress       :      0.85s CPU      0.87s WALL (       7 calls)

     Called by init_run:
     wfcinit      :      0.07s CPU      0.07s WALL (       2 calls)
     potinit      :      0.13s CPU      0.14s WALL (       2 calls)
     hinit0       :      0.26s CPU      0.28s WALL (       2 calls)

     Called by electrons:
     c_bands      :      4.58s CPU      5.28s WALL (      61 calls)
     sum_band     :      1.54s CPU      1.68s WALL (      61 calls)
     v_of_rho     :      0.40s CPU      0.42s WALL (      66 calls)
     newd         :      0.54s CPU      0.56s WALL (      66 calls)
     mix_rho      :      0.03s CPU      0.03s WALL (      61 calls)

     Called by c_bands:
     init_us_2    :      0.16s CPU      0.18s WALL (    8004 calls)
     cegterg      :      4.24s CPU      4.89s WALL (    3538 calls)

     Called by *egterg:
     cdiaghg      :      0.61s CPU      0.71s WALL (   12172 calls)
     h_psi        :      3.02s CPU      3.48s WALL (   12694 calls)
     s_psi        :      0.06s CPU      0.06s WALL (   12694 calls)
     g_psi        :      0.02s CPU      0.03s WALL (    9040 calls)

     Called by h_psi:
     h_psi:calbec :      0.16s CPU      0.19s WALL (   12694 calls)
     vloc_psi     :      2.73s CPU      3.15s WALL (   12694 calls)
     add_vuspsi   :      0.06s CPU      0.07s WALL (   12694 calls)

     General routines
     calbec       :      0.25s CPU      0.29s WALL (   23134 calls)
     fft          :      0.19s CPU      0.21s WALL (    1925 calls)
     ffts         :      0.11s CPU      0.11s WALL (     254 calls)
     fftw         :      2.64s CPU      3.05s WALL (  178964 calls)
     interpolate  :      0.12s CPU      0.12s WALL (     132 calls)

     Parallel routines

     PWSCF        :      8.72s CPU      9.65s WALL


   This run was terminated on:  17:54:20  20Oct2025            

=------------------------------------------------------------------------------=
   JOB DONE.
=------------------------------------------------------------------------------=
