
     Program PWSCF v.7.4.1 starts on 21Oct2025 at 18: 1:41 

     This program is part of the open-source Quantum ESPRESSO suite
     for quantum simulation of materials; please cite
         "P. Giannozzi et al., J. Phys.:Condens. Matter 21 395502 (2009);
         "P. Giannozzi et al., J. Phys.:Condens. Matter 29 465901 (2017);
         "P. Giannozzi et al., J. Chem. Phys. 152 154105 (2020);
          URL http://www.quantum-espresso.org", 
     in publications or presentations arising from this work. More details at
     http://www.quantum-espresso.org/quote

     Parallel version (MPI), running on     2 processors

     MPI processes distributed on     1 nodes
     156 MiB available memory on the printing compute node when the environment starts

     Waiting for input...
     Reading input from standard input

     Current dimensions of program PWSCF are:
     Max number of different atomic species (ntypx) = 10
     Max number of k-points (npk) =  40000
     Max angular momentum in pseudopotentials (lmaxx) =  4
     file Cu.pz-d-rrkjus.UPF: wavefunction(s)  3D renormalized
     Message from routine setup:
     using ibrav=0 with symmetry is DISCOURAGED, use correct ibrav instead

     R & G space division:  proc/nbgrp/npool/nimage =       2
     Subspace diagonalization in iterative solution of the eigenvalue problem:
     a serial algorithm will be used


     Parallelization info
     --------------------
     sticks:   dense  smooth     PW     G-vecs:    dense   smooth      PW
     Min         255     126     45                 3815     1365     304
     Max         256     127     46                 3816     1368     305
     Sum         511     253     91                 7631     2733     609

     Using Slab Decomposition



     bravais-lattice index     =            0
     lattice parameter (alat)  =       4.8105  a.u.
     unit-cell volume          =      78.7126 (a.u.)^3
     number of atoms/cell      =            1
     number of atomic types    =            1
     number of electrons       =        11.00
     number of Kohn-Sham states=           10
     kinetic-energy cutoff     =      40.0000  Ry
     charge density cutoff     =     320.0000  Ry
     scf convergence threshold =      1.0E-07
     mixing beta               =       0.7000
     number of iterations used =            8  plain     mixing
     energy convergence thresh.=      1.0E-04
     force convergence thresh. =      1.0E-03
     press convergence thresh. =      5.0E-01
     Exchange-correlation=  SLA  PZ   NOGX NOGC
                           (   1   1   0   0   0   0   0)
     nstep                     =           50


     celldm(1)=   4.810457  celldm(2)=   0.000000  celldm(3)=   0.000000
     celldm(4)=   0.000000  celldm(5)=   0.000000  celldm(6)=   0.000000

     crystal axes: (cart. coord. in units of alat)
               a(1) = (   0.000000   0.707107   0.707107 )  
               a(2) = (   0.707107   0.000000   0.707107 )  
               a(3) = (   0.707107   0.707107   0.000000 )  

     reciprocal axes: (cart. coord. in units 2 pi/alat)
               b(1) = ( -0.707107  0.707107  0.707107 )  
               b(2) = (  0.707107 -0.707107  0.707107 )  
               b(3) = (  0.707107  0.707107 -0.707107 )  


     PseudoPot. # 1 for Cu read from file:
     /home/bond/Software/QE/qe-7.4.1/pseudo/Cu.pz-d-rrkjus.UPF
     MD5 check sum: fd38ae683e239c95a66f426e1f8e5fc7
     Pseudo is Ultrasoft, Zval = 11.0
     Generated by new atomic code, or converted to UPF format
     Using radial grid of  899 points,  3 beta functions with: 
                l(1) =   2
                l(2) =   2
                l(3) =   1
     Q(r) pseudized with 0 coefficients 


     atomic species   valence    mass     pseudopotential
     Cu               11.00    63.54600     Cu( 1.00)

     48 Sym. Ops., with inversion, found



   Cartesian axes

     site n.     atom                  positions (alat units)
         1        Cu     tau(   1) = (   0.0000000   0.0000000   0.0000000  )

     number of k points=   110  Methfessel-Paxton smearing, width (Ry)=  0.0200

     Number of k-points >= 100: set verbosity='high' to print them.

     Dense  grid:     7631 G-vectors     FFT dimensions: (  27,  27,  27)

     Smooth grid:     2733 G-vectors     FFT dimensions: (  20,  20,  20)

     Estimated max dynamical RAM per process >      13.01 MB

     Estimated total dynamical RAM >      26.03 MB

     Initial potential from superposition of free atoms

     starting charge      10.9997, renormalised to      11.0000
     Starting wfcs are    6 randomized atomic wfcs +    4 random wfcs

     total cpu time spent up to now is        0.9 secs

     Self-consistent Calculation

     iteration #  1     ecut=    40.00 Ry     beta= 0.70
     Davidson diagonalization with overlap
     ethr =  1.00E-02,  avg # of iterations =  5.6

     total cpu time spent up to now is        1.7 secs

     total energy              =     -87.72734536 Ry
     estimated scf accuracy    <       0.24602449 Ry

     iteration #  2     ecut=    40.00 Ry     beta= 0.70
     Davidson diagonalization with overlap
     ethr =  2.24E-03,  avg # of iterations =  2.0

     total cpu time spent up to now is        2.1 secs

     total energy              =     -87.81038258 Ry
     estimated scf accuracy    <       0.20487703 Ry

     iteration #  3     ecut=    40.00 Ry     beta= 0.70
     Davidson diagonalization with overlap
     ethr =  1.86E-03,  avg # of iterations =  1.1

     total cpu time spent up to now is        2.6 secs

     total energy              =     -87.84241388 Ry
     estimated scf accuracy    <       0.00126585 Ry

     iteration #  4     ecut=    40.00 Ry     beta= 0.70
     Davidson diagonalization with overlap
     ethr =  1.15E-05,  avg # of iterations =  2.6

     total cpu time spent up to now is        3.1 secs

     total energy              =     -87.84286123 Ry
     estimated scf accuracy    <       0.00003277 Ry

     iteration #  5     ecut=    40.00 Ry     beta= 0.70
     Davidson diagonalization with overlap
     ethr =  2.98E-07,  avg # of iterations =  1.4

     total cpu time spent up to now is        3.5 secs

     total energy              =     -87.84285773 Ry
     estimated scf accuracy    <       0.00001057 Ry

     iteration #  6     ecut=    40.00 Ry     beta= 0.70
     Davidson diagonalization with overlap
     ethr =  9.61E-08,  avg # of iterations =  1.0

     total cpu time spent up to now is        3.8 secs

     End of self-consistent calculation

     Number of k-points >= 100: set verbosity='high' to print the bands.

     the Fermi energy is    13.9179 ev

!    total energy              =     -87.84285961 Ry
     estimated scf accuracy    <       0.00000001 Ry
     smearing contrib. (-TS)   =       0.00005491 Ry
     internal energy E=F+TS    =     -87.84291452 Ry

     The total energy is F=E-TS. E is the sum of the following terms:
     one-electron contribution =     -11.60766556 Ry
     hartree contribution      =      19.35122602 Ry
     xc contribution           =     -14.03904512 Ry
     ewald contribution        =     -81.54742986 Ry

     convergence has been achieved in   6 iterations


     Computing stress (Cartesian axis) and pressure

          total   stress  (Ry/bohr**3)                   (kbar)     P=      -64.26
  -0.00043684   0.00000000  -0.00000000          -64.26        0.00       -0.00
   0.00000000  -0.00043684   0.00000000            0.00      -64.26        0.00
  -0.00000000   0.00000000  -0.00043684           -0.00        0.00      -64.26


     BFGS Geometry Optimization
     Energy error            =      1.1E-03 Ry
     Gradient error          =      0.0E+00 Ry/Bohr
     Cell gradient error     =      6.4E+01 kbar

     number of scf cycles    =   1
     number of bfgs steps    =   0

     enthalpy           new  =     -87.8428596084 Ry

     new trust radius        =       0.0193783141 bohr
     new conv_thr            =       0.0000001000 Ry

     new unit-cell volume =     76.16177 a.u.^3 (    11.28601 Ang^3 )
     density =      9.34968 g/cm^3

CELL_PARAMETERS (angstrom)
  -0.000000000   1.780342131   1.780342131
   1.780342131   0.000000000   1.780342131
   1.780342131   1.780342131   0.000000000

ATOMIC_POSITIONS (angstrom)
Cu               0.0000000000        0.0000000000        0.0000000000    0   0   0


     Message from routine punch:
     Nothing written, as per user request (disk_io='none')
     NEW-OLD atomic charge density approx. for the potential
     New effective cutoffs (rho, wfc):  324.37   40.88

     total cpu time spent up to now is        4.1 secs

     Self-consistent Calculation

     iteration #  1     ecut=    40.00 Ry     beta= 0.70
     Davidson diagonalization with overlap
     ethr =  1.00E-06,  avg # of iterations =  4.0

     total cpu time spent up to now is        4.9 secs

     total energy              =     -87.84351937 Ry
     estimated scf accuracy    <       0.00001750 Ry

     iteration #  2     ecut=    40.00 Ry     beta= 0.70
     Davidson diagonalization with overlap
     ethr =  1.59E-07,  avg # of iterations =  1.9

     total cpu time spent up to now is        5.3 secs

     total energy              =     -87.84352319 Ry
     estimated scf accuracy    <       0.00001137 Ry

     iteration #  3     ecut=    40.00 Ry     beta= 0.70
     Davidson diagonalization with overlap
     ethr =  1.03E-07,  avg # of iterations =  1.0

     total cpu time spent up to now is        5.7 secs

     total energy              =     -87.84352560 Ry
     estimated scf accuracy    <       0.00000012 Ry

     iteration #  4     ecut=    40.00 Ry     beta= 0.70
     Davidson diagonalization with overlap
     ethr =  1.10E-09,  avg # of iterations =  1.5

     total cpu time spent up to now is        6.1 secs

     End of self-consistent calculation

     Number of k-points >= 100: set verbosity='high' to print the bands.

     the Fermi energy is    14.5606 ev

!    total energy              =     -87.84352561 Ry
     estimated scf accuracy    <          2.2E-10 Ry
     smearing contrib. (-TS)   =       0.00003687 Ry
     internal energy E=F+TS    =     -87.84356249 Ry

     The total energy is F=E-TS. E is the sum of the following terms:
     one-electron contribution =     -10.22634523 Ry
     hartree contribution      =      18.88795592 Ry
     xc contribution           =     -14.05732721 Ry
     ewald contribution        =     -82.44784596 Ry

     convergence has been achieved in   4 iterations


     Computing stress (Cartesian axis) and pressure

          total   stress  (Ry/bohr**3)                   (kbar)     P=      -12.45
  -0.00008465  -0.00000000  -0.00000000          -12.45       -0.00       -0.00
  -0.00000000  -0.00008465  -0.00000000           -0.00      -12.45       -0.00
  -0.00000000  -0.00000000  -0.00008465           -0.00       -0.00      -12.45

     Energy error            =      6.7E-04 Ry
     Gradient error          =      0.0E+00 Ry/Bohr
     Cell gradient error     =      1.2E+01 kbar

     number of scf cycles    =   2
     number of bfgs steps    =   1

     enthalpy           old  =     -87.8428596084 Ry
     enthalpy           new  =     -87.8435256141 Ry

     CASE: enthalpy          _new < enthalpy          _old

     new trust radius        =       0.0045080064 bohr
     new conv_thr            =       0.0000000010 Ry

     new unit-cell volume =     75.57316 a.u.^3 (    11.19879 Ang^3 )
     density =      9.42250 g/cm^3

CELL_PARAMETERS (angstrom)
  -0.000000000   1.775743913   1.775743913
   1.775743913   0.000000000   1.775743913
   1.775743913   1.775743913  -0.000000000

ATOMIC_POSITIONS (angstrom)
Cu               0.0000000000        0.0000000000        0.0000000000    0   0   0


     Message from routine punch:
     Nothing written, as per user request (disk_io='none')
     NEW-OLD atomic charge density approx. for the potential
     New effective cutoffs (rho, wfc):  326.05   41.10

     total cpu time spent up to now is        6.3 secs

     Self-consistent Calculation

     iteration #  1     ecut=    40.00 Ry     beta= 0.70
     Davidson diagonalization with overlap
     ethr =  1.00E-06,  avg # of iterations =  3.0

     Threshold (ethr) on eigenvalues was too large:
     Diagonalizing with lowered threshold

     Davidson diagonalization with overlap
     ethr =  7.80E-09,  avg # of iterations =  1.3

     total cpu time spent up to now is        7.3 secs

     total energy              =     -87.84354294 Ry
     estimated scf accuracy    <       0.00000089 Ry

     iteration #  2     ecut=    40.00 Ry     beta= 0.70
     Davidson diagonalization with overlap
     ethr =  8.13E-09,  avg # of iterations =  2.0

     total cpu time spent up to now is        7.7 secs

     total energy              =     -87.84354313 Ry
     estimated scf accuracy    <       0.00000057 Ry

     iteration #  3     ecut=    40.00 Ry     beta= 0.70
     Davidson diagonalization with overlap
     ethr =  5.22E-09,  avg # of iterations =  1.0

     total cpu time spent up to now is        8.1 secs

     total energy              =     -87.84354325 Ry
     estimated scf accuracy    <          6.7E-09 Ry

     iteration #  4     ecut=    40.00 Ry     beta= 0.70
     Davidson diagonalization with overlap
     ethr =  6.13E-11,  avg # of iterations =  1.2

     total cpu time spent up to now is        8.5 secs

     End of self-consistent calculation

     Number of k-points >= 100: set verbosity='high' to print the bands.

     the Fermi energy is    14.7153 ev

!    total energy              =     -87.84354325 Ry
     estimated scf accuracy    <          1.7E-11 Ry
     smearing contrib. (-TS)   =       0.00003329 Ry
     internal energy E=F+TS    =     -87.84357653 Ry

     The total energy is F=E-TS. E is the sum of the following terms:
     one-electron contribution =      -9.89974418 Ry
     hartree contribution      =      18.77929596 Ry
     xc contribution           =     -14.06178697 Ry
     ewald contribution        =     -82.66134134 Ry

     convergence has been achieved in   4 iterations


     Computing stress (Cartesian axis) and pressure

          total   stress  (Ry/bohr**3)                   (kbar)     P=        0.76
   0.00000514  -0.00000000  -0.00000000            0.76       -0.00       -0.00
  -0.00000000   0.00000514  -0.00000000           -0.00        0.76       -0.00
  -0.00000000  -0.00000000   0.00000514           -0.00       -0.00        0.76

     Energy error            =      1.8E-05 Ry
     Gradient error          =      0.0E+00 Ry/Bohr
     Cell gradient error     =      7.6E-01 kbar

     number of scf cycles    =   3
     number of bfgs steps    =   2

     enthalpy           old  =     -87.8435256141 Ry
     enthalpy           new  =     -87.8435432477 Ry

     CASE: enthalpy          _new < enthalpy          _old

     new trust radius        =       0.0002563556 bohr
     new conv_thr            =       0.0000000010 Ry

     new unit-cell volume =     75.60660 a.u.^3 (    11.20374 Ang^3 )
     density =      9.41834 g/cm^3

CELL_PARAMETERS (angstrom)
  -0.000000000   1.776005737   1.776005737
   1.776005737   0.000000000   1.776005737
   1.776005737   1.776005737  -0.000000000

ATOMIC_POSITIONS (angstrom)
Cu               0.0000000000        0.0000000000        0.0000000000    0   0   0


     Message from routine punch:
     Nothing written, as per user request (disk_io='none')
     NEW-OLD atomic charge density approx. for the potential
     New effective cutoffs (rho, wfc):  325.95   41.08

     total cpu time spent up to now is        8.7 secs

     Self-consistent Calculation

     iteration #  1     ecut=    40.00 Ry     beta= 0.70
     Davidson diagonalization with overlap
     ethr =  1.00E-06,  avg # of iterations =  2.0

     Threshold (ethr) on eigenvalues was too large:
     Diagonalizing with lowered threshold

     Davidson diagonalization with overlap
     ethr =  2.85E-11,  avg # of iterations =  2.1

     total cpu time spent up to now is        9.6 secs

     total energy              =     -87.84354617 Ry
     estimated scf accuracy    <          3.3E-09 Ry

     iteration #  2     ecut=    40.00 Ry     beta= 0.70
     Davidson diagonalization with overlap
     ethr =  3.00E-11,  avg # of iterations =  2.0

     total cpu time spent up to now is       10.0 secs

     total energy              =     -87.84354617 Ry
     estimated scf accuracy    <          2.2E-09 Ry

     iteration #  3     ecut=    40.00 Ry     beta= 0.70
     Davidson diagonalization with overlap
     ethr =  1.96E-11,  avg # of iterations =  1.0

     total cpu time spent up to now is       10.4 secs

     End of self-consistent calculation

     Number of k-points >= 100: set verbosity='high' to print the bands.

     the Fermi energy is    14.7064 ev

!    total energy              =     -87.84354617 Ry
     estimated scf accuracy    <          2.2E-11 Ry
     smearing contrib. (-TS)   =       0.00003349 Ry
     internal energy E=F+TS    =     -87.84357965 Ry

     The total energy is F=E-TS. E is the sum of the following terms:
     one-electron contribution =      -9.91839828 Ry
     hartree contribution      =      18.78551286 Ry
     xc contribution           =     -14.06153907 Ry
     ewald contribution        =     -82.64915516 Ry

     convergence has been achieved in   3 iterations


     Computing stress (Cartesian axis) and pressure

          total   stress  (Ry/bohr**3)                   (kbar)     P=        0.12
   0.00000080   0.00000000  -0.00000000            0.12        0.00       -0.00
  -0.00000000   0.00000080  -0.00000000           -0.00        0.12       -0.00
   0.00000000  -0.00000000   0.00000080            0.00       -0.00        0.12

     Energy error            =      2.9E-06 Ry
     Gradient error          =      0.0E+00 Ry/Bohr
     Cell gradient error     =      1.2E-01 kbar

     bfgs converged in   4 scf cycles and   3 bfgs steps
     (criteria: energy <  1.0E-04 Ry, force <  1.0E-03 Ry/Bohr, cell <  5.0E-01 kbar)

     End of BFGS Geometry Optimization

     Final enthalpy           =     -87.8435461691 Ry

     File /home/bond/Work/Lab4/Problem3/Cu_nk_10/pwscf.bfgs deleted, as requested
Begin final coordinates
     new unit-cell volume =     75.60660 a.u.^3 (    11.20374 Ang^3 )
     density =      9.41834 g/cm^3

CELL_PARAMETERS (angstrom)
  -0.000000000   1.776005737   1.776005737
   1.776005737   0.000000000   1.776005737
   1.776005737   1.776005737  -0.000000000

ATOMIC_POSITIONS (angstrom)
Cu               0.0000000000        0.0000000000        0.0000000000    0   0   0
End final coordinates


     Message from routine punch:
     Nothing written, as per user request (disk_io='none')

     Final scf calculation at the relaxed structure.
     The G-vectors are recalculated for the final unit cell
     Results may differ from those at the preceding step.

     Parallelization info
     --------------------
     sticks:   dense  smooth     PW     G-vecs:    dense   smooth      PW
     Min         249     126     45                 3694     1318     304
     Max         250     127     46                 3697     1319     305
     Sum         499     253     91                 7391     2637     609

     Using Slab Decomposition



     bravais-lattice index     =            0
     lattice parameter (alat)  =       4.8105  a.u.
     unit-cell volume          =      75.6066 (a.u.)^3
     number of atoms/cell      =            1
     number of atomic types    =            1
     number of electrons       =        11.00
     number of Kohn-Sham states=           10
     kinetic-energy cutoff     =      40.0000  Ry
     charge density cutoff     =     320.0000  Ry
     scf convergence threshold =      1.0E-09
     mixing beta               =       0.7000
     number of iterations used =            8  plain     mixing
     press convergence thresh. =      5.0E-01
     Exchange-correlation=  SLA  PZ   NOGX NOGC
                           (   1   1   0   0   0   0   0)

     celldm(1)=   4.810457  celldm(2)=   0.000000  celldm(3)=   0.000000
     celldm(4)=   0.000000  celldm(5)=   0.000000  celldm(6)=   0.000000

     crystal axes: (cart. coord. in units of alat)
               a(1) = (  -0.000000   0.697681   0.697681 )  
               a(2) = (   0.697681   0.000000   0.697681 )  
               a(3) = (   0.697681   0.697681  -0.000000 )  

     reciprocal axes: (cart. coord. in units 2 pi/alat)
               b(1) = ( -0.716660  0.716660  0.716660 )  
               b(2) = (  0.716660 -0.716660  0.716660 )  
               b(3) = (  0.716660  0.716660 -0.716660 )  


     PseudoPot. # 1 for Cu read from file:
     /home/bond/Software/QE/qe-7.4.1/pseudo/Cu.pz-d-rrkjus.UPF
     MD5 check sum: fd38ae683e239c95a66f426e1f8e5fc7
     Pseudo is Ultrasoft, Zval = 11.0
     Generated by new atomic code, or converted to UPF format
     Using radial grid of  899 points,  3 beta functions with: 
                l(1) =   2
                l(2) =   2
                l(3) =   1
     Q(r) pseudized with 0 coefficients 


     atomic species   valence    mass     pseudopotential
     Cu               11.00    63.54600     Cu( 1.00)

     48 Sym. Ops., with inversion, found



   Cartesian axes

     site n.     atom                  positions (alat units)
         1        Cu     tau(   1) = (   0.0000000   0.0000000   0.0000000  )

     number of k points=   110  Methfessel-Paxton smearing, width (Ry)=  0.0200

     Number of k-points >= 100: set verbosity='high' to print them.

     Dense  grid:     7391 G-vectors     FFT dimensions: (  27,  27,  27)

     Smooth grid:     2637 G-vectors     FFT dimensions: (  20,  20,  20)

     Estimated max dynamical RAM per process >      12.65 MB

     Estimated total dynamical RAM >      25.29 MB

     Initial potential from superposition of free atoms

     starting charge      10.9997, renormalised to      11.0000
     Starting wfcs are    6 randomized atomic wfcs +    4 random wfcs

     total cpu time spent up to now is       11.2 secs

     Self-consistent Calculation

     iteration #  1     ecut=    40.00 Ry     beta= 0.70
     Davidson diagonalization with overlap
     c_bands:  1 eigenvalues not converged
     c_bands:  1 eigenvalues not converged
     c_bands:  1 eigenvalues not converged
     ethr =  1.00E-06,  avg # of iterations = 13.3

     total cpu time spent up to now is       12.6 secs

     total energy              =     -87.73146770 Ry
     estimated scf accuracy    <       0.24351883 Ry

     iteration #  2     ecut=    40.00 Ry     beta= 0.70
     Davidson diagonalization with overlap
     ethr =  2.21E-03,  avg # of iterations =  2.0

     total cpu time spent up to now is       13.1 secs

     total energy              =     -87.81296895 Ry
     estimated scf accuracy    <       0.18903742 Ry

     iteration #  3     ecut=    40.00 Ry     beta= 0.70
     Davidson diagonalization with overlap
     ethr =  1.72E-03,  avg # of iterations =  1.0

     total cpu time spent up to now is       13.5 secs

     total energy              =     -87.84316469 Ry
     estimated scf accuracy    <       0.00099231 Ry

     iteration #  4     ecut=    40.00 Ry     beta= 0.70
     Davidson diagonalization with overlap
     ethr =  9.02E-06,  avg # of iterations =  2.1

     total cpu time spent up to now is       13.9 secs

     total energy              =     -87.84353702 Ry
     estimated scf accuracy    <       0.00002933 Ry

     iteration #  5     ecut=    40.00 Ry     beta= 0.70
     Davidson diagonalization with overlap
     ethr =  2.67E-07,  avg # of iterations =  1.1

     total cpu time spent up to now is       14.4 secs

     total energy              =     -87.84353410 Ry
     estimated scf accuracy    <       0.00000900 Ry

     iteration #  6     ecut=    40.00 Ry     beta= 0.70
     Davidson diagonalization with overlap
     ethr =  8.19E-08,  avg # of iterations =  1.0

     total cpu time spent up to now is       14.8 secs

     total energy              =     -87.84353570 Ry
     estimated scf accuracy    <       0.00000001 Ry

     iteration #  7     ecut=    40.00 Ry     beta= 0.70
     Davidson diagonalization with overlap
     ethr =  1.07E-10,  avg # of iterations =  2.4

     total cpu time spent up to now is       15.3 secs

     End of self-consistent calculation

     Number of k-points >= 100: set verbosity='high' to print the bands.

     the Fermi energy is    14.7065 ev

!    total energy              =     -87.84353571 Ry
     estimated scf accuracy    <          2.0E-10 Ry
     smearing contrib. (-TS)   =       0.00003348 Ry
     internal energy E=F+TS    =     -87.84356918 Ry

     The total energy is F=E-TS. E is the sum of the following terms:
     one-electron contribution =      -9.91834981 Ry
     hartree contribution      =      18.78547947 Ry
     xc contribution           =     -14.06154368 Ry
     ewald contribution        =     -82.64915516 Ry

     convergence has been achieved in   7 iterations


     Computing stress (Cartesian axis) and pressure

          total   stress  (Ry/bohr**3)                   (kbar)     P=       -0.38
  -0.00000256   0.00000000   0.00000000           -0.38        0.00        0.00
   0.00000000  -0.00000256   0.00000000            0.00       -0.38        0.00
   0.00000000   0.00000000  -0.00000256            0.00        0.00       -0.38

     Message from routine punch:
     Nothing written, as per user request (disk_io='none')

     init_run     :      0.88s CPU      1.00s WALL (       2 calls)
     electrons    :     11.91s CPU     12.89s WALL (       5 calls)
     update_pot   :      0.01s CPU      0.01s WALL (       3 calls)
     stress       :      1.25s CPU      1.45s WALL (       5 calls)

     Called by init_run:
     wfcinit      :      0.29s CPU      0.33s WALL (       2 calls)
     potinit      :      0.18s CPU      0.20s WALL (       2 calls)
     hinit0       :      0.35s CPU      0.39s WALL (       2 calls)

     Called by electrons:
     c_bands      :      9.87s CPU     10.71s WALL (      26 calls)
     sum_band     :      1.74s CPU      1.87s WALL (      26 calls)
     v_of_rho     :      0.03s CPU      0.03s WALL (      29 calls)
     newd         :      0.29s CPU      0.30s WALL (      29 calls)
     mix_rho      :      0.01s CPU      0.02s WALL (      26 calls)

     Called by c_bands:
     init_us_2    :      0.34s CPU      0.37s WALL (    6490 calls)
     cegterg      :      9.29s CPU     10.09s WALL (    2860 calls)

     Called by *egterg:
     cdiaghg      :      1.25s CPU      1.37s WALL (    8979 calls)
     h_psi        :      6.93s CPU      7.53s WALL (    9749 calls)
     s_psi        :      0.11s CPU      0.12s WALL (    9749 calls)
     g_psi        :      0.05s CPU      0.05s WALL (    6669 calls)

     Called by h_psi:
     h_psi:calbec :      0.33s CPU      0.36s WALL (    9749 calls)
     vloc_psi     :      6.36s CPU      6.90s WALL (    9749 calls)
     add_vuspsi   :      0.12s CPU      0.14s WALL (    9749 calls)

     General routines
     calbec       :      0.61s CPU      0.69s WALL (   19759 calls)
     fft          :      0.12s CPU      0.14s WALL (     179 calls)
     ffts         :      0.15s CPU      0.16s WALL (      55 calls)
     fftw         :      6.01s CPU      6.53s WALL (  182178 calls)
     interpolate  :      0.16s CPU      0.17s WALL (      29 calls)

     Parallel routines

     PWSCF        :     14.16s CPU     15.53s WALL


   This run was terminated on:  18: 1:56  21Oct2025            

=------------------------------------------------------------------------------=
   JOB DONE.
=------------------------------------------------------------------------------=
