
     Program PWSCF v.7.4.1 starts on  7Oct2025 at 23:57:59 

     This program is part of the open-source Quantum ESPRESSO suite
     for quantum simulation of materials; please cite
         "P. Giannozzi et al., J. Phys.:Condens. Matter 21 395502 (2009);
         "P. Giannozzi et al., J. Phys.:Condens. Matter 29 465901 (2017);
         "P. Giannozzi et al., J. Chem. Phys. 152 154105 (2020);
          URL http://www.quantum-espresso.org", 
     in publications or presentations arising from this work. More details at
     http://www.quantum-espresso.org/quote

     Parallel version (MPI), running on     1 processors

     MPI processes distributed on     1 nodes
     210 MiB available memory on the printing compute node when the environment starts

     Waiting for input...
     Reading input from standard input
Warning: card &CELL ignored
Warning: card / ignored

     Current dimensions of program PWSCF are:
     Max number of different atomic species (ntypx) = 10
     Max number of k-points (npk) =  40000
     Max angular momentum in pseudopotentials (lmaxx) =  4
     Message from routine setup:
     using ibrav=0 with symmetry is DISCOURAGED, use correct ibrav instead

     Subspace diagonalization in iterative solution of the eigenvalue problem:
     a serial algorithm will be used


     G-vector sticks info
     --------------------
     sticks:   dense  smooth     PW     G-vecs:    dense   smooth      PW
     Sum        1027    1027    301                21595    21595    3479

     Using Slab Decomposition



     bravais-lattice index     =            0
     lattice parameter (alat)  =       7.5604  a.u.
     unit-cell volume          =     305.5804 (a.u.)^3
     number of atoms/cell      =            2
     number of atomic types    =            1
     number of electrons       =        28.00
     number of Kohn-Sham states=           14
     kinetic-energy cutoff     =      65.0000  Ry
     charge density cutoff     =     260.0000  Ry
     scf convergence threshold =      1.0E-07
     mixing beta               =       0.5000
     number of iterations used =            8  plain     mixing
     Exchange-correlation=  SLA  PZ   NOGX NOGC
                           (   1   1   0   0   0   0   0)

     celldm(1)=   7.560435  celldm(2)=   0.000000  celldm(3)=   0.000000
     celldm(4)=   0.000000  celldm(5)=   0.000000  celldm(6)=   0.000000

     crystal axes: (cart. coord. in units of alat)
               a(1) = (   0.000000   0.707107   0.707107 )  
               a(2) = (   0.707107   0.000000   0.707107 )  
               a(3) = (   0.707107   0.707107   0.000000 )  

     reciprocal axes: (cart. coord. in units 2 pi/alat)
               b(1) = ( -0.707107  0.707107  0.707107 )  
               b(2) = (  0.707107 -0.707107  0.707107 )  
               b(3) = (  0.707107  0.707107 -0.707107 )  


     PseudoPot. # 1 for Ge read from file:
     /home/bond/Software/QE/qe-7.4.1/pseudo/ge_lda_v1.4.uspp.F.UPF
     MD5 check sum: bf9d52b59cc8a669818bb2b52e0c2ba0
     Pseudo is Ultrasoft + core correction, Zval = 14.0
     Generated by new atomic code, or converted to UPF format
     Using radial grid of  873 points,  6 beta functions with: 
                l(1) =   0
                l(2) =   0
                l(3) =   1
                l(4) =   1
                l(5) =   2
                l(6) =   2
     Q(r) pseudized with  8 coefficients,  rinner =    1.400   1.400   1.400
                                                       1.400   1.400

     atomic species   valence    mass     pseudopotential
     Ge               14.00    72.63000     Ge( 1.00)

     48 Sym. Ops., with inversion, found (24 have fractional translation)



   Cartesian axes

     site n.     atom                  positions (alat units)
         1        Ge     tau(   1) = (   0.0000000   0.0000000   0.0000000  )
         2        Ge     tau(   2) = (   0.3535534   0.3535534   0.3535534  )

     number of k points=     8
                       cart. coord. in units 2pi/alat
        k(    1) = (   0.0000000   0.0000000   0.0000000), wk =   0.0312500
        k(    2) = (   0.1767767   0.1767767  -0.1767767), wk =   0.2500000
        k(    3) = (  -0.3535534  -0.3535534   0.3535534), wk =   0.1250000
        k(    4) = (   0.3535534   0.0000000   0.0000000), wk =   0.1875000
        k(    5) = (  -0.1767767  -0.5303301   0.5303301), wk =   0.7500000
        k(    6) = (   0.0000000  -0.3535534   0.3535534), wk =   0.3750000
        k(    7) = (  -0.7071068   0.0000000   0.0000000), wk =   0.0937500
        k(    8) = (  -0.7071068   0.3535534   0.0000000), wk =   0.1875000

     Dense  grid:    21595 G-vectors     FFT dimensions: (  40,  40,  40)

     Estimated max dynamical RAM per process >      87.58 MB

     Initial potential from superposition of free atoms

     starting charge      27.9986, renormalised to      28.0000
     Starting wfcs are   18 randomized atomic wfcs

     total cpu time spent up to now is        1.6 secs

     Self-consistent Calculation

     iteration #  1     ecut=    65.00 Ry     beta= 0.50
     Davidson diagonalization with overlap
     ethr =  1.00E-02,  avg # of iterations =  1.8

     Threshold (ethr) on eigenvalues was too large:
     Diagonalizing with lowered threshold

     Davidson diagonalization with overlap
     ethr =  1.32E-04,  avg # of iterations =  1.9

     total cpu time spent up to now is        3.2 secs

     total energy              =    -426.15273871 Ry
     estimated scf accuracy    <       0.03929726 Ry

     iteration #  2     ecut=    65.00 Ry     beta= 0.50
     Davidson diagonalization with overlap
     ethr =  1.40E-04,  avg # of iterations =  1.1

     total cpu time spent up to now is        4.1 secs

     total energy              =    -426.15119926 Ry
     estimated scf accuracy    <       0.00697131 Ry

     iteration #  3     ecut=    65.00 Ry     beta= 0.50
     Davidson diagonalization with overlap
     ethr =  2.49E-05,  avg # of iterations =  2.0

     total cpu time spent up to now is        5.0 secs

     total energy              =    -426.15170253 Ry
     estimated scf accuracy    <       0.00007471 Ry

     iteration #  4     ecut=    65.00 Ry     beta= 0.50
     Davidson diagonalization with overlap
     ethr =  2.67E-07,  avg # of iterations =  3.5

     total cpu time spent up to now is        6.0 secs

     total energy              =    -426.15172257 Ry
     estimated scf accuracy    <       0.00000334 Ry

     iteration #  5     ecut=    65.00 Ry     beta= 0.50
     Davidson diagonalization with overlap
     ethr =  1.19E-08,  avg # of iterations =  3.4

     total cpu time spent up to now is        7.1 secs

     total energy              =    -426.15172347 Ry
     estimated scf accuracy    <       0.00000019 Ry

     iteration #  6     ecut=    65.00 Ry     beta= 0.50
     Davidson diagonalization with overlap
     ethr =  6.90E-10,  avg # of iterations =  4.1

     total cpu time spent up to now is        8.3 secs

     End of self-consistent calculation

          k = 0.0000 0.0000 0.0000 (  2733 PWs)   bands (ev):

   -16.6792 -16.6792 -16.6792 -16.6431 -16.6431 -16.4319 -16.4319 -16.4319
   -16.4186 -16.4186  -4.6287   8.0075   8.1965   8.1965

          k = 0.1768 0.1768-0.1768 (  2710 PWs)   bands (ev):

   -16.6974 -16.6974 -16.6705 -16.6145 -16.6145 -16.4577 -16.4577 -16.4421
   -16.3981 -16.3981  -3.8867   3.4148   7.3104   7.3104

          k =-0.3536-0.3536 0.3536 (  2692 PWs)   bands (ev):

   -16.7037 -16.7037 -16.6616 -16.6012 -16.6012 -16.4665 -16.4665 -16.4526
   -16.3912 -16.3912  -2.5398   0.5410   6.7883   6.7883

          k = 0.3536 0.0000 0.0000 (  2682 PWs)   bands (ev):

   -16.6975 -16.6975 -16.6856 -16.6089 -16.5737 -16.5192 -16.4502 -16.4059
   -16.4034 -16.4034  -3.6188   3.4064   6.1508   6.1508

          k =-0.1768-0.5303 0.5303 (  2708 PWs)   bands (ev):

   -16.7248 -16.7098 -16.6417 -16.5741 -16.5545 -16.5358 -16.4876 -16.4562
   -16.3833 -16.3688  -2.1303   0.7528   4.4377   5.7862

          k = 0.0000-0.3536 0.3536 (  2700 PWs)   bands (ev):

   -16.7200 -16.7125 -16.6353 -16.5987 -16.5712 -16.4992 -16.4798 -16.4667
   -16.3796 -16.3763  -2.7443   1.6071   4.2979   6.6867

          k =-0.7071 0.0000 0.0000 (  2698 PWs)   bands (ev):

   -16.7132 -16.7132 -16.6276 -16.6276 -16.5282 -16.5282 -16.4706 -16.4706
   -16.3773 -16.3773  -0.7472  -0.7472   5.1123   5.1123

          k =-0.7071 0.3536 0.0000 (  2720 PWs)   bands (ev):

   -16.7270 -16.7270 -16.5850 -16.5850 -16.5360 -16.5360 -16.5038 -16.5038
   -16.3650 -16.3650  -0.6493  -0.6493   4.2629   4.2629

     highest occupied level (ev):     8.1965

!    total energy              =    -426.15172351 Ry
     estimated scf accuracy    <       0.00000005 Ry

     The total energy is the sum of the following terms:
     one-electron contribution =    -279.23857683 Ry
     hartree contribution      =     165.13273783 Ry
     xc contribution           =    -114.55140947 Ry
     ewald contribution        =    -197.49447504 Ry

     convergence has been achieved in   6 iterations

     Forces acting on atoms (cartesian axes, Ry/au):

     atom    1 type  1   force =     0.00000000    0.00000000    0.00000000
     atom    2 type  1   force =     0.00000000    0.00000000    0.00000000

     Total force =     0.000000     Total SCF correction =     0.000000


     Computing stress (Cartesian axis) and pressure

          total   stress  (Ry/bohr**3)                   (kbar)     P=       -2.69
  -0.00001829   0.00000000   0.00000000           -2.69        0.00        0.00
   0.00000000  -0.00001829   0.00000000            0.00       -2.69        0.00
  -0.00000000   0.00000000  -0.00001829           -0.00        0.00       -2.69

     Message from routine punch:
     Nothing written, as per user request (disk_io='none')

     init_run     :      1.19s CPU      1.31s WALL (       1 calls)
     electrons    :      5.82s CPU      6.76s WALL (       1 calls)
     forces       :      0.16s CPU      0.21s WALL (       1 calls)
     stress       :      1.24s CPU      1.35s WALL (       1 calls)

     Called by init_run:
     wfcinit      :      0.42s CPU      0.43s WALL (       1 calls)
     potinit      :      0.04s CPU      0.04s WALL (       1 calls)
     hinit0       :      0.61s CPU      0.64s WALL (       1 calls)

     Called by electrons:
     c_bands      :      3.85s CPU      4.16s WALL (       7 calls)
     sum_band     :      1.38s CPU      1.73s WALL (       7 calls)
     v_of_rho     :      0.05s CPU      0.05s WALL (       7 calls)
     newd         :      0.61s CPU      0.93s WALL (       7 calls)
     mix_rho      :      0.02s CPU      0.02s WALL (       7 calls)

     Called by c_bands:
     init_us_2    :      0.17s CPU      0.19s WALL (     136 calls)
     cegterg      :      3.49s CPU      3.78s WALL (      56 calls)

     Called by *egterg:
     cdiaghg      :      0.06s CPU      0.06s WALL (     190 calls)
     h_psi        :      3.36s CPU      3.63s WALL (     206 calls)
     s_psi        :      0.09s CPU      0.09s WALL (     206 calls)
     g_psi        :      0.02s CPU      0.02s WALL (     142 calls)

     Called by h_psi:
     h_psi:calbec :      0.11s CPU      0.11s WALL (     206 calls)
     vloc_psi     :      3.12s CPU      3.39s WALL (     206 calls)
     add_vuspsi   :      0.10s CPU      0.10s WALL (     206 calls)

     General routines
     calbec       :      0.23s CPU      0.23s WALL (     398 calls)
     fft          :      0.30s CPU      0.31s WALL (      37 calls)
     ffts         :      0.01s CPU      0.01s WALL (       7 calls)
     fftw         :      3.09s CPU      3.33s WALL (    5010 calls)

     Parallel routines

     PWSCF        :      8.62s CPU      9.90s WALL


   This run was terminated on:  23:58: 9   7Oct2025            

=------------------------------------------------------------------------------=
   JOB DONE.
=------------------------------------------------------------------------------=
