
     Program PWSCF v.7.4.1 starts on 21Oct2025 at 18: 6:35 

     This program is part of the open-source Quantum ESPRESSO suite
     for quantum simulation of materials; please cite
         "P. Giannozzi et al., J. Phys.:Condens. Matter 21 395502 (2009);
         "P. Giannozzi et al., J. Phys.:Condens. Matter 29 465901 (2017);
         "P. Giannozzi et al., J. Chem. Phys. 152 154105 (2020);
          URL http://www.quantum-espresso.org", 
     in publications or presentations arising from this work. More details at
     http://www.quantum-espresso.org/quote

     Parallel version (MPI), running on     2 processors

     MPI processes distributed on     1 nodes
     270 MiB available memory on the printing compute node when the environment starts

     Waiting for input...
     Reading input from standard input

     Current dimensions of program PWSCF are:
     Max number of different atomic species (ntypx) = 10
     Max number of k-points (npk) =  40000
     Max angular momentum in pseudopotentials (lmaxx) =  4
     Message from routine setup:
     using ibrav=0 with symmetry is DISCOURAGED, use correct ibrav instead

     R & G space division:  proc/nbgrp/npool/nimage =       2
     Subspace diagonalization in iterative solution of the eigenvalue problem:
     a serial algorithm will be used


     Parallelization info
     --------------------
     sticks:   dense  smooth     PW     G-vecs:    dense   smooth      PW
     Min         318     156     60                 5208     1847     410
     Max         319     157     61                 5209     1848     411
     Sum         637     313    121                10417     3695     821

     Using Slab Decomposition



     bravais-lattice index     =            0
     lattice parameter (alat)  =       5.3450  a.u.
     unit-cell volume          =     107.9734 (a.u.)^3
     number of atoms/cell      =            1
     number of atomic types    =            1
     number of electrons       =        11.00
     number of Kohn-Sham states=           10
     kinetic-energy cutoff     =      40.0000  Ry
     charge density cutoff     =     320.0000  Ry
     scf convergence threshold =      1.0E-07
     mixing beta               =       0.7000
     number of iterations used =            8  plain     mixing
     energy convergence thresh.=      1.0E-04
     force convergence thresh. =      1.0E-03
     press convergence thresh. =      5.0E-01
     Exchange-correlation=  SLA  PZ   NOGX NOGC
                           (   1   1   0   0   0   0   0)
     nstep                     =           50


     celldm(1)=   5.344953  celldm(2)=   0.000000  celldm(3)=   0.000000
     celldm(4)=   0.000000  celldm(5)=   0.000000  celldm(6)=   0.000000

     crystal axes: (cart. coord. in units of alat)
               a(1) = (   0.000000   0.707107   0.707107 )  
               a(2) = (   0.707107   0.000000   0.707107 )  
               a(3) = (   0.707107   0.707107   0.000000 )  

     reciprocal axes: (cart. coord. in units 2 pi/alat)
               b(1) = ( -0.707107  0.707107  0.707107 )  
               b(2) = (  0.707107 -0.707107  0.707107 )  
               b(3) = (  0.707107  0.707107 -0.707107 )  


     PseudoPot. # 1 for Au read from file:
     /home/bond/Software/QE/qe-7.4.1/pseudo/Au.pz-d-rrkjus.UPF
     MD5 check sum: 424ffd4ac9c90487cbadcd287136c95b
     Pseudo is Ultrasoft, Zval = 11.0
     Generated by new atomic code, or converted to UPF format
     Using radial grid of 1279 points,  3 beta functions with: 
                l(1) =   2
                l(2) =   2
                l(3) =   1
     Q(r) pseudized with 0 coefficients 


     atomic species   valence    mass     pseudopotential
     Au               11.00   196.96657     Au( 1.00)

     48 Sym. Ops., with inversion, found



   Cartesian axes

     site n.     atom                  positions (alat units)
         1        Au     tau(   1) = (   0.0000000   0.0000000   0.0000000  )

     number of k points=   408  Methfessel-Paxton smearing, width (Ry)=  0.0200

     Number of k-points >= 100: set verbosity='high' to print them.

     Dense  grid:    10417 G-vectors     FFT dimensions: (  32,  32,  32)

     Smooth grid:     3695 G-vectors     FFT dimensions: (  24,  24,  24)

     Estimated max dynamical RAM per process >      28.10 MB

     Estimated total dynamical RAM >      56.20 MB

     Initial potential from superposition of free atoms

     starting charge      10.9999, renormalised to      11.0000
     Starting wfcs are    9 randomized atomic wfcs +    1 random wfcs

     total cpu time spent up to now is        2.3 secs

     Self-consistent Calculation

     iteration #  1     ecut=    40.00 Ry     beta= 0.70
     Davidson diagonalization with overlap
     ethr =  1.00E-02,  avg # of iterations =  5.2

     Threshold (ethr) on eigenvalues was too large:
     Diagonalizing with lowered threshold

     Davidson diagonalization with overlap
     ethr =  6.92E-04,  avg # of iterations =  1.1

     total cpu time spent up to now is       11.4 secs

     total energy              =     -66.84552035 Ry
     estimated scf accuracy    <       0.07717411 Ry

     iteration #  2     ecut=    40.00 Ry     beta= 0.70
     Davidson diagonalization with overlap
     ethr =  7.02E-04,  avg # of iterations =  2.0

     total cpu time spent up to now is       15.5 secs

     total energy              =     -66.86831850 Ry
     estimated scf accuracy    <       0.02427998 Ry

     iteration #  3     ecut=    40.00 Ry     beta= 0.70
     Davidson diagonalization with overlap
     ethr =  2.21E-04,  avg # of iterations =  1.7

     total cpu time spent up to now is       18.6 secs

     total energy              =     -66.87300102 Ry
     estimated scf accuracy    <       0.00002864 Ry

     iteration #  4     ecut=    40.00 Ry     beta= 0.70
     Davidson diagonalization with overlap
     ethr =  2.60E-07,  avg # of iterations =  3.0

     total cpu time spent up to now is       24.0 secs

     total energy              =     -66.87301798 Ry
     estimated scf accuracy    <       0.00000277 Ry

     iteration #  5     ecut=    40.00 Ry     beta= 0.70
     Davidson diagonalization with overlap
     ethr =  2.52E-08,  avg # of iterations =  1.0

     total cpu time spent up to now is       29.4 secs

     End of self-consistent calculation

     Number of k-points >= 100: set verbosity='high' to print the bands.

     the Fermi energy is    17.0919 ev

!    total energy              =     -66.87301812 Ry
     estimated scf accuracy    <       0.00000008 Ry
     smearing contrib. (-TS)   =       0.00004829 Ry
     internal energy E=F+TS    =     -66.87306641 Ry

     The total energy is F=E-TS. E is the sum of the following terms:
     one-electron contribution =      10.18417958 Ry
     hartree contribution      =       6.82926782 Ry
     xc contribution           =     -10.49382693 Ry
     ewald contribution        =     -73.39268687 Ry

     convergence has been achieved in   5 iterations


     Computing stress (Cartesian axis) and pressure

          total   stress  (Ry/bohr**3)                   (kbar)     P=       72.22
   0.00049096   0.00000000   0.00000000           72.22        0.00        0.00
   0.00000000   0.00049096   0.00000000            0.00       72.22        0.00
   0.00000000   0.00000000   0.00049096            0.00        0.00       72.22


     BFGS Geometry Optimization
     Energy error            =      1.9E-03 Ry
     Gradient error          =      0.0E+00 Ry/Bohr
     Cell gradient error     =      7.2E+01 kbar

     number of scf cycles    =   1
     number of bfgs steps    =   0

     enthalpy           new  =     -66.8730181190 Ry

     new trust radius        =       0.0255079012 bohr
     new conv_thr            =       0.0000001000 Ry

     new unit-cell volume =    111.99815 a.u.^3 (    16.59641 Ang^3 )
     density =     19.70731 g/cm^3

CELL_PARAMETERS (angstrom)
   0.000000000   2.024548018   2.024548018
   2.024548018   0.000000000   2.024548018
   2.024548018   2.024548018   0.000000000

ATOMIC_POSITIONS (angstrom)
Au               0.0000000000        0.0000000000        0.0000000000    0   0   0


     Message from routine punch:
     Nothing written, as per user request (disk_io='none')
     NEW-OLD atomic charge density approx. for the potential
     New effective cutoffs (rho, wfc):  310.17   39.03

     total cpu time spent up to now is       31.1 secs

     Self-consistent Calculation

     iteration #  1     ecut=    40.00 Ry     beta= 0.70
     Davidson diagonalization with overlap
     ethr =  1.00E-06,  avg # of iterations =  3.6

     Threshold (ethr) on eigenvalues was too large:
     Diagonalizing with lowered threshold

     Davidson diagonalization with overlap
     ethr =  7.41E-09,  avg # of iterations =  1.2

     total cpu time spent up to now is       44.9 secs

     total energy              =     -66.87395817 Ry
     estimated scf accuracy    <       0.00000079 Ry

     iteration #  2     ecut=    40.00 Ry     beta= 0.70
     Davidson diagonalization with overlap
     ethr =  7.20E-09,  avg # of iterations =  2.0

     total cpu time spent up to now is       50.4 secs

     total energy              =     -66.87395830 Ry
     estimated scf accuracy    <       0.00000018 Ry

     iteration #  3     ecut=    40.00 Ry     beta= 0.70
     Davidson diagonalization with overlap
     ethr =  1.65E-09,  avg # of iterations =  1.9

     total cpu time spent up to now is       57.3 secs

     End of self-consistent calculation

     Number of k-points >= 100: set verbosity='high' to print the bands.

     the Fermi energy is    16.1994 ev

!    total energy              =     -66.87395834 Ry
     estimated scf accuracy    <       0.00000001 Ry
     smearing contrib. (-TS)   =       0.00003649 Ry
     internal energy E=F+TS    =     -66.87399483 Ry

     The total energy is F=E-TS. E is the sum of the following terms:
     one-electron contribution =       8.94267446 Ry
     hartree contribution      =       7.14721563 Ry
     xc contribution           =     -10.46109791 Ry
     ewald contribution        =     -72.50278701 Ry

     convergence has been achieved in   3 iterations


     Computing stress (Cartesian axis) and pressure

          total   stress  (Ry/bohr**3)                   (kbar)     P=       -3.35
  -0.00002280  -0.00000000  -0.00000000           -3.35       -0.00       -0.00
  -0.00000000  -0.00002280  -0.00000000           -0.00       -3.35       -0.00
  -0.00000000  -0.00000000  -0.00002280           -0.00       -0.00       -3.35

     Energy error            =      9.4E-04 Ry
     Gradient error          =      0.0E+00 Ry/Bohr
     Cell gradient error     =      3.4E+00 kbar

     number of scf cycles    =   2
     number of bfgs steps    =   1

     enthalpy           old  =     -66.8730181190 Ry
     enthalpy           new  =     -66.8739583400 Ry

     CASE: enthalpy          _new < enthalpy          _old

     new trust radius        =       0.0011656289 bohr
     new conv_thr            =       0.0000000010 Ry

     new unit-cell volume =    111.81321 a.u.^3 (    16.56901 Ang^3 )
     density =     19.73991 g/cm^3

CELL_PARAMETERS (angstrom)
   0.000000000   2.023433074   2.023433074
   2.023433074   0.000000000   2.023433074
   2.023433074   2.023433074   0.000000000

ATOMIC_POSITIONS (angstrom)
Au               0.0000000000        0.0000000000        0.0000000000    0   0   0


     Message from routine punch:
     Nothing written, as per user request (disk_io='none')
     NEW-OLD atomic charge density approx. for the potential
     New effective cutoffs (rho, wfc):  310.51   39.07

     total cpu time spent up to now is       58.3 secs

     Self-consistent Calculation

     iteration #  1     ecut=    40.00 Ry     beta= 0.70
     Davidson diagonalization with overlap
     ethr =  1.00E-06,  avg # of iterations =  2.0

     Threshold (ethr) on eigenvalues was too large:
     Diagonalizing with lowered threshold

     Davidson diagonalization with overlap
     ethr =  1.65E-10,  avg # of iterations =  1.3

     total cpu time spent up to now is       67.7 secs

     total energy              =     -66.87395980 Ry
     estimated scf accuracy    <       0.00000002 Ry

     iteration #  2     ecut=    40.00 Ry     beta= 0.70
     Davidson diagonalization with overlap
     ethr =  1.40E-10,  avg # of iterations =  2.0

     total cpu time spent up to now is       73.2 secs

     total energy              =     -66.87395980 Ry
     estimated scf accuracy    <          5.5E-09 Ry

     iteration #  3     ecut=    40.00 Ry     beta= 0.70
     Davidson diagonalization with overlap
     ethr =  5.00E-11,  avg # of iterations =  1.5

     total cpu time spent up to now is       76.6 secs

     End of self-consistent calculation

     Number of k-points >= 100: set verbosity='high' to print the bands.

     the Fermi energy is    16.2388 ev

!    total energy              =     -66.87395980 Ry
     estimated scf accuracy    <          3.2E-11 Ry
     smearing contrib. (-TS)   =       0.00003700 Ry
     internal energy E=F+TS    =     -66.87399680 Ry

     The total energy is F=E-TS. E is the sum of the following terms:
     one-electron contribution =       8.99839720 Ry
     hartree contribution      =       7.13292512 Ry
     xc contribution           =     -10.46258192 Ry
     ewald contribution        =     -72.54273720 Ry

     convergence has been achieved in   3 iterations


     Computing stress (Cartesian axis) and pressure

          total   stress  (Ry/bohr**3)                   (kbar)     P=        0.41
   0.00000280   0.00000000   0.00000000            0.41        0.00        0.00
   0.00000000   0.00000280  -0.00000000            0.00        0.41       -0.00
   0.00000000  -0.00000000   0.00000280            0.00       -0.00        0.41

     Energy error            =      1.5E-06 Ry
     Gradient error          =      0.0E+00 Ry/Bohr
     Cell gradient error     =      4.1E-01 kbar

     bfgs converged in   3 scf cycles and   2 bfgs steps
     (criteria: energy <  1.0E-04 Ry, force <  1.0E-03 Ry/Bohr, cell <  5.0E-01 kbar)

     End of BFGS Geometry Optimization

     Final enthalpy           =     -66.8739598010 Ry

     File /home/bond/Work/Lab4/Problem3/Au_nk_16/pwscf.bfgs deleted, as requested
Begin final coordinates
     new unit-cell volume =    111.81321 a.u.^3 (    16.56901 Ang^3 )
     density =     19.73991 g/cm^3

CELL_PARAMETERS (angstrom)
   0.000000000   2.023433074   2.023433074
   2.023433074   0.000000000   2.023433074
   2.023433074   2.023433074   0.000000000

ATOMIC_POSITIONS (angstrom)
Au               0.0000000000        0.0000000000        0.0000000000    0   0   0
End final coordinates


     Message from routine punch:
     Nothing written, as per user request (disk_io='none')

     Final scf calculation at the relaxed structure.
     The G-vectors are recalculated for the final unit cell
     Results may differ from those at the preceding step.

     Parallelization info
     --------------------
     sticks:   dense  smooth     PW     G-vecs:    dense   smooth      PW
     Min         324     156     60                 5423     1917     434
     Max         325     157     61                 5426     1922     435
     Sum         649     313    121                10849     3839     869

     Using Slab Decomposition



     bravais-lattice index     =            0
     lattice parameter (alat)  =       5.3450  a.u.
     unit-cell volume          =     111.8132 (a.u.)^3
     number of atoms/cell      =            1
     number of atomic types    =            1
     number of electrons       =        11.00
     number of Kohn-Sham states=           10
     kinetic-energy cutoff     =      40.0000  Ry
     charge density cutoff     =     320.0000  Ry
     scf convergence threshold =      1.0E-09
     mixing beta               =       0.7000
     number of iterations used =            8  plain     mixing
     press convergence thresh. =      5.0E-01
     Exchange-correlation=  SLA  PZ   NOGX NOGC
                           (   1   1   0   0   0   0   0)

     celldm(1)=   5.344953  celldm(2)=   0.000000  celldm(3)=   0.000000
     celldm(4)=   0.000000  celldm(5)=   0.000000  celldm(6)=   0.000000

     crystal axes: (cart. coord. in units of alat)
               a(1) = (   0.000000   0.715392   0.715392 )  
               a(2) = (   0.715392   0.000000   0.715392 )  
               a(3) = (   0.715392   0.715392   0.000000 )  

     reciprocal axes: (cart. coord. in units 2 pi/alat)
               b(1) = ( -0.698918  0.698918  0.698918 )  
               b(2) = (  0.698918 -0.698918  0.698918 )  
               b(3) = (  0.698918  0.698918 -0.698918 )  


     PseudoPot. # 1 for Au read from file:
     /home/bond/Software/QE/qe-7.4.1/pseudo/Au.pz-d-rrkjus.UPF
     MD5 check sum: 424ffd4ac9c90487cbadcd287136c95b
     Pseudo is Ultrasoft, Zval = 11.0
     Generated by new atomic code, or converted to UPF format
     Using radial grid of 1279 points,  3 beta functions with: 
                l(1) =   2
                l(2) =   2
                l(3) =   1
     Q(r) pseudized with 0 coefficients 


     atomic species   valence    mass     pseudopotential
     Au               11.00   196.96657     Au( 1.00)

     48 Sym. Ops., with inversion, found



   Cartesian axes

     site n.     atom                  positions (alat units)
         1        Au     tau(   1) = (   0.0000000   0.0000000   0.0000000  )

     number of k points=   408  Methfessel-Paxton smearing, width (Ry)=  0.0200

     Number of k-points >= 100: set verbosity='high' to print them.

     Dense  grid:    10849 G-vectors     FFT dimensions: (  32,  32,  32)

     Smooth grid:     3839 G-vectors     FFT dimensions: (  24,  24,  24)

     Estimated max dynamical RAM per process >      29.20 MB

     Estimated total dynamical RAM >      58.39 MB

     Initial potential from superposition of free atoms

     starting charge      10.9999, renormalised to      11.0000
     Starting wfcs are    9 randomized atomic wfcs +    1 random wfcs

     total cpu time spent up to now is       79.2 secs

     Self-consistent Calculation

     iteration #  1     ecut=    40.00 Ry     beta= 0.70
     Davidson diagonalization with overlap
     c_bands:  1 eigenvalues not converged
     c_bands:  1 eigenvalues not converged
     c_bands:  1 eigenvalues not converged
     ethr =  1.00E-06,  avg # of iterations = 11.8

     total cpu time spent up to now is       91.1 secs

     total energy              =     -66.84528026 Ry
     estimated scf accuracy    <       0.07893518 Ry

     iteration #  2     ecut=    40.00 Ry     beta= 0.70
     Davidson diagonalization with overlap
     ethr =  7.18E-04,  avg # of iterations =  2.0

     total cpu time spent up to now is       95.7 secs

     total energy              =     -66.86877511 Ry
     estimated scf accuracy    <       0.02710370 Ry

     iteration #  3     ecut=    40.00 Ry     beta= 0.70
     Davidson diagonalization with overlap
     ethr =  2.46E-04,  avg # of iterations =  1.6

     total cpu time spent up to now is       99.8 secs

     total energy              =     -66.87396948 Ry
     estimated scf accuracy    <       0.00002911 Ry

     iteration #  4     ecut=    40.00 Ry     beta= 0.70
     Davidson diagonalization with overlap
     ethr =  2.65E-07,  avg # of iterations =  2.3

     total cpu time spent up to now is      104.6 secs

     total energy              =     -66.87398942 Ry
     estimated scf accuracy    <       0.00000349 Ry

     iteration #  5     ecut=    40.00 Ry     beta= 0.70
     Davidson diagonalization with overlap
     ethr =  3.18E-08,  avg # of iterations =  1.0

     total cpu time spent up to now is      108.0 secs

     total energy              =     -66.87398958 Ry
     estimated scf accuracy    <       0.00000013 Ry

     iteration #  6     ecut=    40.00 Ry     beta= 0.70
     Davidson diagonalization with overlap
     ethr =  1.20E-09,  avg # of iterations =  2.0

     total cpu time spent up to now is      112.3 secs

     total energy              =     -66.87398961 Ry
     estimated scf accuracy    <          4.7E-09 Ry

     iteration #  7     ecut=    40.00 Ry     beta= 0.70
     Davidson diagonalization with overlap
     ethr =  4.29E-11,  avg # of iterations =  1.9

     total cpu time spent up to now is      117.1 secs

     End of self-consistent calculation

     Number of k-points >= 100: set verbosity='high' to print the bands.

     the Fermi energy is    16.2387 ev

!    total energy              =     -66.87398961 Ry
     estimated scf accuracy    <          4.9E-12 Ry
     smearing contrib. (-TS)   =       0.00003700 Ry
     internal energy E=F+TS    =     -66.87402661 Ry

     The total energy is F=E-TS. E is the sum of the following terms:
     one-electron contribution =       8.99843075 Ry
     hartree contribution      =       7.13282136 Ry
     xc contribution           =     -10.46254152 Ry
     ewald contribution        =     -72.54273720 Ry

     convergence has been achieved in   7 iterations


     Computing stress (Cartesian axis) and pressure

          total   stress  (Ry/bohr**3)                   (kbar)     P=        0.23
   0.00000159  -0.00000000   0.00000000            0.23       -0.00        0.00
  -0.00000000   0.00000159  -0.00000000           -0.00        0.23       -0.00
   0.00000000  -0.00000000   0.00000159            0.00       -0.00        0.23

     Message from routine punch:
     Nothing written, as per user request (disk_io='none')

     init_run     :      3.58s CPU      3.93s WALL (       2 calls)
     electrons    :     99.76s CPU    109.50s WALL (       4 calls)
     update_pot   :      0.01s CPU      0.01s WALL (       2 calls)
     stress       :      4.17s CPU      4.30s WALL (       4 calls)

     Called by init_run:
     wfcinit      :      2.67s CPU      3.01s WALL (       2 calls)
     potinit      :      0.21s CPU      0.22s WALL (       2 calls)
     hinit0       :      0.61s CPU      0.62s WALL (       2 calls)

     Called by electrons:
     c_bands      :     85.10s CPU     93.22s WALL (      21 calls)
     sum_band     :     14.32s CPU     15.93s WALL (      21 calls)
     v_of_rho     :      0.04s CPU      0.05s WALL (      22 calls)
     newd         :      0.34s CPU      0.34s WALL (      22 calls)
     mix_rho      :      0.01s CPU      0.02s WALL (      21 calls)

     Called by c_bands:
     init_us_2    :      1.65s CPU      1.82s WALL (   19584 calls)
     cegterg      :     82.20s CPU     90.03s WALL (    8568 calls)

     Called by *egterg:
     cdiaghg      :      4.91s CPU      5.37s WALL (   27847 calls)
     h_psi        :     72.03s CPU     79.07s WALL (   30703 calls)
     s_psi        :      0.47s CPU      0.52s WALL (   30703 calls)
     g_psi        :      0.21s CPU      0.24s WALL (   21319 calls)

     Called by h_psi:
     h_psi:calbec :      2.44s CPU      2.66s WALL (   30703 calls)
     vloc_psi     :     68.40s CPU     75.10s WALL (   30703 calls)
     add_vuspsi   :      0.65s CPU      0.72s WALL (   30703 calls)

     General routines
     calbec       :      4.42s CPU      4.78s WALL (   60487 calls)
     fft          :      0.19s CPU      0.19s WALL (     137 calls)
     ffts         :      0.16s CPU      0.16s WALL (      43 calls)
     fftw         :     70.92s CPU     78.12s WALL (  549168 calls)
     interpolate  :      0.16s CPU      0.17s WALL (      22 calls)

     Parallel routines

     PWSCF        :   1m47.69s CPU   1m57.93s WALL


   This run was terminated on:  18: 8:33  21Oct2025            

=------------------------------------------------------------------------------=
   JOB DONE.
=------------------------------------------------------------------------------=
