LAMMPS (22 Jul 2025 - Update 1)
Reading data file ...
  orthogonal box = (0 0 0) to (53.592799 53.592799 53.592799)
  1 by 1 by 1 MPI processor grid
  reading atoms ...
  8787 atoms
  read_data CPU = 0.025 seconds
WARNING: No fixes with time integration, atoms won't move
For more information see https://docs.lammps.org/err0028 (../verlet.cpp:60)
Generated 0 of 0 mixed pair_coeff terms from geometric mixing rule
Neighbor list info ...
  update: every = 1 steps, delay = 0 steps, check = yes
  max neighbors/atom: 2000, page size: 100000
  master list distance cutoff = 6.5
  ghost atom cutoff = 6.5
  binsize = 3.25, bins = 17 17 17
  1 neighbor lists, perpetual/occasional/extra = 1 0 0
  (1) pair lj/cut, perpetual
      attributes: half, newton on
      pair build: half/bin/atomonly/newton
      stencil: half/bin/3d
      bin: standard
Setting up Verlet run ...
  Unit style    : metal
  Current step  : 0
  Time step     : 0.001
Per MPI rank memory allocation (min/avg/max) = 6.548 | 6.548 | 6.548 Mbytes
   Step         PotEng           Lx             Ly             Lz           Press           Pxx            Pyy            Pzz      
         0  -23147.636      53.592799      53.592799      53.592799     -0.00096865867 -0.00094698677 -0.0010120027  -0.00094698658
Loop time of 2.297e-06 on 1 procs for 0 steps with 8787 atoms

217.7% CPU use with 1 MPI tasks x no OpenMP threads

MPI task timing breakdown:
Section |  min time  |  avg time  |  max time  |%varavg| %total
---------------------------------------------------------------
Pair    | 0          | 0          | 0          |   0.0 |  0.00
Neigh   | 0          | 0          | 0          |   0.0 |  0.00
Comm    | 0          | 0          | 0          |   0.0 |  0.00
Output  | 0          | 0          | 0          |   0.0 |  0.00
Modify  | 0          | 0          | 0          |   0.0 |  0.00
Other   |            | 2.297e-06  |            |       |100.00

Nlocal:           8787 ave        8787 max        8787 min
Histogram: 1 0 0 0 0 0 0 0 0 0
Nghost:           9173 ave        9173 max        9173 min
Histogram: 1 0 0 0 0 0 0 0 0 0
Neighs:         237222 ave      237222 max      237222 min
Histogram: 1 0 0 0 0 0 0 0 0 0

Total # of neighbors = 237222
Ave neighs/atom = 26.996927
Neighbor list builds = 0
Dangerous builds = 0
Generated 0 of 0 mixed pair_coeff terms from geometric mixing rule
Setting up cg style minimization ...
  Unit style    : metal
  Current step  : 0
WARNING: Energy due to 1 extra global DOFs will be included in minimizer energies
 (../min.cpp:222)
Per MPI rank memory allocation (min/avg/max) = 8.798 | 8.798 | 8.798 Mbytes
   Step         PotEng           Lx             Ly             Lz           Press           Pxx            Pyy            Pzz      
         0  -23147.636      53.592799      53.592799      53.592799     -0.00096865867 -0.00094698677 -0.0010120027  -0.00094698658
        19  -23147.644      53.592764      53.592764      53.592764      0.74306379     0.74306777     0.74305582     0.74306777   
Loop time of 0.139936 on 1 procs for 19 steps with 8787 atoms

100.0% CPU use with 1 MPI tasks x no OpenMP threads

Minimization stats:
  Stopping criterion = energy tolerance
  Energy initial, next-to-last, final = 
     -23147.6364637148  -23147.6444187651  -23147.6444187797
  Force two-norm initial, final = 0.45240336 0.2220196
  Force max component initial, final = 0.13063076 0.21416858
  Final line search alpha, max atom move = 0.063239602 0.013543935
  Iterations, force evaluations = 19 38

MPI task timing breakdown:
Section |  min time  |  avg time  |  max time  |%varavg| %total
---------------------------------------------------------------
Pair    | 0.11552    | 0.11552    | 0.11552    |   0.0 | 82.55
Neigh   | 0          | 0          | 0          |   0.0 |  0.00
Comm    | 0.0024501  | 0.0024501  | 0.0024501  |   0.0 |  1.75
Output  | 0          | 0          | 0          |   0.0 |  0.00
Modify  | 0          | 0          | 0          |   0.0 |  0.00
Other   |            | 0.02197    |            |       | 15.70

Nlocal:           8787 ave        8787 max        8787 min
Histogram: 1 0 0 0 0 0 0 0 0 0
Nghost:           9173 ave        9173 max        9173 min
Histogram: 1 0 0 0 0 0 0 0 0 0
Neighs:         237222 ave      237222 max      237222 min
Histogram: 1 0 0 0 0 0 0 0 0 0

Total # of neighbors = 237222
Ave neighs/atom = 26.996927
Neighbor list builds = 0
Dangerous builds = 0
Total energy (eV) = -23147.6444187797
Number of atoms = 8787
Lattice constant (Angstoms) = 53.5927641641362
Total wall time: 0:00:00
