
     Program PWSCF v.7.4.1 starts on  9Oct2025 at 13: 2:17 

     This program is part of the open-source Quantum ESPRESSO suite
     for quantum simulation of materials; please cite
         "P. Giannozzi et al., J. Phys.:Condens. Matter 21 395502 (2009);
         "P. Giannozzi et al., J. Phys.:Condens. Matter 29 465901 (2017);
         "P. Giannozzi et al., J. Chem. Phys. 152 154105 (2020);
          URL http://www.quantum-espresso.org", 
     in publications or presentations arising from this work. More details at
     http://www.quantum-espresso.org/quote

     Parallel version (MPI), running on     1 processors

     MPI processes distributed on     1 nodes
     307 MiB available memory on the printing compute node when the environment starts

     Waiting for input...
     Reading input from standard input
Warning: card &CELL ignored
Warning: card / ignored

     Current dimensions of program PWSCF are:
     Max number of different atomic species (ntypx) = 10
     Max number of k-points (npk) =  40000
     Max angular momentum in pseudopotentials (lmaxx) =  4
     Message from routine setup:
     using ibrav=0 with symmetry is DISCOURAGED, use correct ibrav instead

     Subspace diagonalization in iterative solution of the eigenvalue problem:
     a serial algorithm will be used


     G-vector sticks info
     --------------------
     sticks:   dense  smooth     PW     G-vecs:    dense   smooth      PW
     Sum         721     721    211                12627    12627    2085

     Using Slab Decomposition



     bravais-lattice index     =            0
     lattice parameter (alat)  =       7.5872  a.u.
     unit-cell volume          =     308.8323 (a.u.)^3
     number of atoms/cell      =            2
     number of atomic types    =            1
     number of electrons       =        28.00
     number of Kohn-Sham states=           14
     kinetic-energy cutoff     =      45.0000  Ry
     charge density cutoff     =     180.0000  Ry
     scf convergence threshold =      1.0E-07
     mixing beta               =       0.5000
     number of iterations used =            8  plain     mixing
     Exchange-correlation=  SLA  PZ   NOGX NOGC
                           (   1   1   0   0   0   0   0)

     celldm(1)=   7.587160  celldm(2)=   0.000000  celldm(3)=   0.000000
     celldm(4)=   0.000000  celldm(5)=   0.000000  celldm(6)=   0.000000

     crystal axes: (cart. coord. in units of alat)
               a(1) = (   0.000000   0.707107   0.707107 )  
               a(2) = (   0.707107   0.000000   0.707107 )  
               a(3) = (   0.707107   0.707107   0.000000 )  

     reciprocal axes: (cart. coord. in units 2 pi/alat)
               b(1) = ( -0.707107  0.707107  0.707107 )  
               b(2) = (  0.707107 -0.707107  0.707107 )  
               b(3) = (  0.707107  0.707107 -0.707107 )  


     PseudoPot. # 1 for Ge read from file:
     /home/bond/Software/QE/qe-7.4.1/pseudo/ge_lda_v1.4.uspp.F.UPF
     MD5 check sum: bf9d52b59cc8a669818bb2b52e0c2ba0
     Pseudo is Ultrasoft + core correction, Zval = 14.0
     Generated by new atomic code, or converted to UPF format
     Using radial grid of  873 points,  6 beta functions with: 
                l(1) =   0
                l(2) =   0
                l(3) =   1
                l(4) =   1
                l(5) =   2
                l(6) =   2
     Q(r) pseudized with  8 coefficients,  rinner =    1.400   1.400   1.400
                                                       1.400   1.400

     atomic species   valence    mass     pseudopotential
     Ge               14.00    72.63000     Ge( 1.00)

     48 Sym. Ops., with inversion, found (24 have fractional translation)



   Cartesian axes

     site n.     atom                  positions (alat units)
         1        Ge     tau(   1) = (   0.0000000   0.0000000   0.0000000  )
         2        Ge     tau(   2) = (   0.3535534   0.3535534   0.3535534  )

     number of k points=     8
                       cart. coord. in units 2pi/alat
        k(    1) = (   0.0000000   0.0000000   0.0000000), wk =   0.0312500
        k(    2) = (   0.1767767   0.1767767  -0.1767767), wk =   0.2500000
        k(    3) = (  -0.3535534  -0.3535534   0.3535534), wk =   0.1250000
        k(    4) = (   0.3535534   0.0000000   0.0000000), wk =   0.1875000
        k(    5) = (  -0.1767767  -0.5303301   0.5303301), wk =   0.7500000
        k(    6) = (   0.0000000  -0.3535534   0.3535534), wk =   0.3750000
        k(    7) = (  -0.7071068   0.0000000   0.0000000), wk =   0.0937500
        k(    8) = (  -0.7071068   0.3535534   0.0000000), wk =   0.1875000

     Dense  grid:    12627 G-vectors     FFT dimensions: (  36,  36,  36)

     Estimated max dynamical RAM per process >      52.15 MB

     Check: negative core charge=   -0.000002

     Initial potential from superposition of free atoms

     starting charge      27.9986, renormalised to      28.0000
     Starting wfcs are   18 randomized atomic wfcs

     total cpu time spent up to now is        0.7 secs

     Self-consistent Calculation

     iteration #  1     ecut=    45.00 Ry     beta= 0.50
     Davidson diagonalization with overlap
     ethr =  1.00E-02,  avg # of iterations =  1.5

     Threshold (ethr) on eigenvalues was too large:
     Diagonalizing with lowered threshold

     Davidson diagonalization with overlap
     ethr =  1.29E-04,  avg # of iterations =  1.9

     total cpu time spent up to now is        1.2 secs

     total energy              =    -426.15186700 Ry
     estimated scf accuracy    <       0.03874134 Ry

     iteration #  2     ecut=    45.00 Ry     beta= 0.50
     Davidson diagonalization with overlap
     ethr =  1.38E-04,  avg # of iterations =  1.1

     total cpu time spent up to now is        1.5 secs

     total energy              =    -426.15036142 Ry
     estimated scf accuracy    <       0.00687889 Ry

     iteration #  3     ecut=    45.00 Ry     beta= 0.50
     Davidson diagonalization with overlap
     ethr =  2.46E-05,  avg # of iterations =  2.0

     total cpu time spent up to now is        1.7 secs

     total energy              =    -426.15084743 Ry
     estimated scf accuracy    <       0.00007336 Ry

     iteration #  4     ecut=    45.00 Ry     beta= 0.50
     Davidson diagonalization with overlap
     ethr =  2.62E-07,  avg # of iterations =  3.4

     total cpu time spent up to now is        2.0 secs

     total energy              =    -426.15086650 Ry
     estimated scf accuracy    <       0.00000302 Ry

     iteration #  5     ecut=    45.00 Ry     beta= 0.50
     Davidson diagonalization with overlap
     ethr =  1.08E-08,  avg # of iterations =  3.5

     total cpu time spent up to now is        2.4 secs

     total energy              =    -426.15086746 Ry
     estimated scf accuracy    <       0.00000013 Ry

     iteration #  6     ecut=    45.00 Ry     beta= 0.50
     Davidson diagonalization with overlap
     ethr =  4.52E-10,  avg # of iterations =  4.2

     total cpu time spent up to now is        2.7 secs

     End of self-consistent calculation

          k = 0.0000 0.0000 0.0000 (  1591 PWs)   bands (ev):

   -16.8018 -16.8018 -16.8018 -16.7665 -16.7665 -16.5610 -16.5610 -16.5610
   -16.5487 -16.5487  -4.6868   7.7738   8.0584   8.0584

          k = 0.1768 0.1768-0.1768 (  1573 PWs)   bands (ev):

   -16.8194 -16.8194 -16.7933 -16.7387 -16.7387 -16.5865 -16.5865 -16.5710
   -16.5284 -16.5284  -3.9526   3.2887   7.1835   7.1835

          k =-0.3536-0.3536 0.3536 (  1568 PWs)   bands (ev):

   -16.8256 -16.8256 -16.7846 -16.7257 -16.7257 -16.5951 -16.5951 -16.5811
   -16.5217 -16.5217  -2.6240   0.4508   6.6665   6.6665

          k = 0.3536 0.0000 0.0000 (  1587 PWs)   bands (ev):

   -16.8196 -16.8196 -16.8078 -16.7333 -16.6992 -16.6459 -16.5793 -16.5362
   -16.5334 -16.5334  -3.6872   3.2633   6.0385   6.0385

          k =-0.1768-0.5303 0.5303 (  1586 PWs)   bands (ev):

   -16.8462 -16.8316 -16.7650 -16.6995 -16.6805 -16.6622 -16.6157 -16.5849
   -16.5140 -16.4999  -2.2163   0.6435   4.3426   5.6773

          k = 0.0000-0.3536 0.3536 (  1564 PWs)   bands (ev):

   -16.8415 -16.8342 -16.7589 -16.7234 -16.6967 -16.6267 -16.6077 -16.5953
   -16.5105 -16.5072  -2.8232   1.4884   4.2070   6.5668

          k =-0.7071 0.0000 0.0000 (  1588 PWs)   bands (ev):

   -16.8350 -16.8350 -16.7512 -16.7512 -16.6551 -16.6551 -16.5990 -16.5990
   -16.5081 -16.5081  -0.8460  -0.8460   5.0110   5.0110

          k =-0.7071 0.3536 0.0000 (  1564 PWs)   bands (ev):

   -16.8483 -16.8483 -16.7100 -16.7100 -16.6625 -16.6625 -16.6312 -16.6312
   -16.4963 -16.4963  -0.7513  -0.7513   4.1747   4.1747

     highest occupied level (ev):     8.0584

!    total energy              =    -426.15086751 Ry
     estimated scf accuracy    <       0.00000003 Ry

     The total energy is the sum of the following terms:
     one-electron contribution =    -280.38933015 Ry
     hartree contribution      =     165.57625023 Ry
     xc contribution           =    -114.53896054 Ry
     ewald contribution        =    -196.79882705 Ry

     convergence has been achieved in   6 iterations

     Forces acting on atoms (cartesian axes, Ry/au):

     atom    1 type  1   force =     0.00000000    0.00000000    0.00000000
     atom    2 type  1   force =    -0.00000000   -0.00000000   -0.00000000

     Total force =     0.000000     Total SCF correction =     0.000000


     Computing stress (Cartesian axis) and pressure

          total   stress  (Ry/bohr**3)                   (kbar)     P=      -12.04
  -0.00008184  -0.00000000  -0.00000000          -12.04       -0.00       -0.00
  -0.00000000  -0.00008184  -0.00000000           -0.00      -12.04       -0.00
  -0.00000000  -0.00000000  -0.00008184           -0.00       -0.00      -12.04

     Message from routine punch:
     Nothing written, as per user request (disk_io='none')

     init_run     :      0.63s CPU      0.65s WALL (       1 calls)
     electrons    :      1.92s CPU      1.96s WALL (       1 calls)
     forces       :      0.06s CPU      0.06s WALL (       1 calls)
     stress       :      0.44s CPU      0.44s WALL (       1 calls)

     Called by init_run:
     wfcinit      :      0.23s CPU      0.25s WALL (       1 calls)
     potinit      :      0.01s CPU      0.01s WALL (       1 calls)
     hinit0       :      0.34s CPU      0.35s WALL (       1 calls)

     Called by electrons:
     c_bands      :      1.25s CPU      1.26s WALL (       7 calls)
     sum_band     :      0.45s CPU      0.47s WALL (       7 calls)
     v_of_rho     :      0.02s CPU      0.02s WALL (       7 calls)
     newd         :      0.22s CPU      0.23s WALL (       7 calls)
     mix_rho      :      0.01s CPU      0.01s WALL (       7 calls)

     Called by c_bands:
     init_us_2    :      0.05s CPU      0.05s WALL (     136 calls)
     cegterg      :      1.13s CPU      1.14s WALL (      56 calls)

     Called by *egterg:
     cdiaghg      :      0.03s CPU      0.03s WALL (     189 calls)
     h_psi        :      1.17s CPU      1.19s WALL (     205 calls)
     s_psi        :      0.03s CPU      0.03s WALL (     205 calls)
     g_psi        :      0.01s CPU      0.01s WALL (     141 calls)

     Called by h_psi:
     h_psi:calbec :      0.03s CPU      0.03s WALL (     205 calls)
     vloc_psi     :      1.10s CPU      1.12s WALL (     205 calls)
     add_vuspsi   :      0.03s CPU      0.03s WALL (     205 calls)

     General routines
     calbec       :      0.07s CPU      0.07s WALL (     397 calls)
     fft          :      0.19s CPU      0.20s WALL (      37 calls)
     ffts         :      0.00s CPU      0.00s WALL (       7 calls)
     fftw         :      1.09s CPU      1.11s WALL (    5074 calls)

     Parallel routines

     PWSCF        :      3.12s CPU      3.19s WALL


   This run was terminated on:  13: 2:20   9Oct2025            

=------------------------------------------------------------------------------=
   JOB DONE.
=------------------------------------------------------------------------------=
