
     Program PWSCF v.7.4.1 starts on 20Oct2025 at 23:16:50 

     This program is part of the open-source Quantum ESPRESSO suite
     for quantum simulation of materials; please cite
         "P. Giannozzi et al., J. Phys.:Condens. Matter 21 395502 (2009);
         "P. Giannozzi et al., J. Phys.:Condens. Matter 29 465901 (2017);
         "P. Giannozzi et al., J. Chem. Phys. 152 154105 (2020);
          URL http://www.quantum-espresso.org", 
     in publications or presentations arising from this work. More details at
     http://www.quantum-espresso.org/quote

     Parallel version (MPI), running on     2 processors

     MPI processes distributed on     1 nodes
     276 MiB available memory on the printing compute node when the environment starts

     Waiting for input...
     Reading input from standard input
Warning: card &CELL ignored
Warning: card / ignored

     Current dimensions of program PWSCF are:
     Max number of different atomic species (ntypx) = 10
     Max number of k-points (npk) =  40000
     Max angular momentum in pseudopotentials (lmaxx) =  4
     file Fe.pbe-nd-rrkjus.UPF: wavefunction(s)  4S renormalized
     Message from routine setup:
     using ibrav=0 with symmetry is DISCOURAGED, use correct ibrav instead

     R & G space division:  proc/nbgrp/npool/nimage =       2
     Subspace diagonalization in iterative solution of the eigenvalue problem:
     a serial algorithm will be used


     Parallelization info
     --------------------
     sticks:   dense  smooth     PW     G-vecs:    dense   smooth      PW
     Min         235      90     45                 3265      800     277
     Max         236      91     46                 3266      801     278
     Sum         471     181     91                 6531     1601     555

     Using Slab Decomposition



     bravais-lattice index     =            0
     lattice parameter (alat)  =       4.5823  a.u.
     unit-cell volume          =      74.0697 (a.u.)^3
     number of atoms/cell      =            1
     number of atomic types    =            1
     number of electrons       =         8.00
     number of Kohn-Sham states=            8
     kinetic-energy cutoff     =      30.0000  Ry
     charge density cutoff     =     300.0000  Ry
     scf convergence threshold =      1.0E-07
     mixing beta               =       0.5000
     number of iterations used =            8  plain     mixing
     Exchange-correlation=  SLA  PW   PBE  PBE
                           (   1   4   3   4   0   0   0)

     celldm(1)=   4.582342  celldm(2)=   0.000000  celldm(3)=   0.000000
     celldm(4)=   0.000000  celldm(5)=   0.000000  celldm(6)=   0.000000

     crystal axes: (cart. coord. in units of alat)
               a(1) = (  -0.577350   0.577350   0.577350 )  
               a(2) = (   0.577350  -0.577350   0.577350 )  
               a(3) = (   0.577350   0.577350  -0.577350 )  

     reciprocal axes: (cart. coord. in units 2 pi/alat)
               b(1) = (  0.000000  0.866025  0.866025 )  
               b(2) = (  0.866025  0.000000  0.866025 )  
               b(3) = (  0.866025  0.866025  0.000000 )  


     PseudoPot. # 1 for Fe read from file:
     /home/bond/Software/QE/qe-7.4.1/pseudo/Fe.pbe-nd-rrkjus.UPF
     MD5 check sum: 398036227a04b607635f6f5e8dfd8242
     Pseudo is Ultrasoft + core correction, Zval =  8.0
     Generated by new atomic code, or converted to UPF format
     Using radial grid of  957 points,  6 beta functions with: 
                l(1) =   0
                l(2) =   0
                l(3) =   1
                l(4) =   1
                l(5) =   2
                l(6) =   2
     Q(r) pseudized with 0 coefficients 


     atomic species   valence    mass     pseudopotential
     Fe                8.00    55.84500     Fe( 1.00)

     Starting magnetic structure 
     atomic species   magnetization
     Fe              0.700

     48 Sym. Ops., with inversion, found



   Cartesian axes

     site n.     atom                  positions (alat units)
         1        Fe     tau(   1) = (   0.0000000   0.0000000   0.0000000  )

     number of k points=   104  Methfessel-Paxton smearing, width (Ry)=  0.0200

     Number of k-points >= 100: set verbosity='high' to print them.

     Dense  grid:     6531 G-vectors     FFT dimensions: (  25,  25,  25)

     Smooth grid:     1601 G-vectors     FFT dimensions: (  15,  15,  15)

     Estimated max dynamical RAM per process >      17.34 MB

     Estimated total dynamical RAM >      34.68 MB

     Check: negative core charge=   -0.000001
     Generating pointlists ...
     new r_m :   0.4125 (alat units)  1.8902 (a.u.) for type    1

     Initial potential from superposition of free atoms

     starting charge       7.9994, renormalised to       8.0000
     Starting wfcs are    6 randomized atomic wfcs +    2 random wfcs

     total cpu time spent up to now is        0.7 secs

     Self-consistent Calculation

     iteration #  1     ecut=    30.00 Ry     beta= 0.50
     Davidson diagonalization with overlap
     ethr =  1.00E-02,  avg # of iterations =  4.4

     total cpu time spent up to now is        1.5 secs

     total energy              =     -55.67247152 Ry
     estimated scf accuracy    <       0.32239862 Ry

     total magnetization       =     2.99 Bohr mag/cell
     absolute magnetization    =     2.99 Bohr mag/cell

     iteration #  2     ecut=    30.00 Ry     beta= 0.50
     Davidson diagonalization with overlap
     ethr =  4.03E-03,  avg # of iterations =  1.7

     total cpu time spent up to now is        2.2 secs

     total energy              =     -55.76944428 Ry
     estimated scf accuracy    <       0.04729044 Ry

     total magnetization       =     2.78 Bohr mag/cell
     absolute magnetization    =     2.79 Bohr mag/cell

     iteration #  3     ecut=    30.00 Ry     beta= 0.50
     Davidson diagonalization with overlap
     ethr =  5.91E-04,  avg # of iterations =  1.3

     total cpu time spent up to now is        2.7 secs

     total energy              =     -55.79411897 Ry
     estimated scf accuracy    <       0.00889497 Ry

     total magnetization       =     2.66 Bohr mag/cell
     absolute magnetization    =     2.70 Bohr mag/cell

     iteration #  4     ecut=    30.00 Ry     beta= 0.50
     Davidson diagonalization with overlap
     ethr =  1.11E-04,  avg # of iterations =  1.7

     total cpu time spent up to now is        3.2 secs

     total energy              =     -55.80011433 Ry
     estimated scf accuracy    <       0.00051518 Ry

     total magnetization       =     2.35 Bohr mag/cell
     absolute magnetization    =     2.49 Bohr mag/cell

     iteration #  5     ecut=    30.00 Ry     beta= 0.50
     Davidson diagonalization with overlap
     ethr =  6.44E-06,  avg # of iterations =  5.5

     total cpu time spent up to now is        4.0 secs

     total energy              =     -55.79991704 Ry
     estimated scf accuracy    <       0.00034883 Ry

     total magnetization       =     2.32 Bohr mag/cell
     absolute magnetization    =     2.46 Bohr mag/cell

     iteration #  6     ecut=    30.00 Ry     beta= 0.50
     Davidson diagonalization with overlap
     ethr =  4.36E-06,  avg # of iterations =  2.1

     total cpu time spent up to now is        4.6 secs

     total energy              =     -55.80079210 Ry
     estimated scf accuracy    <       0.00071693 Ry

     total magnetization       =     2.21 Bohr mag/cell
     absolute magnetization    =     2.35 Bohr mag/cell

     iteration #  7     ecut=    30.00 Ry     beta= 0.50
     Davidson diagonalization with overlap
     ethr =  4.36E-06,  avg # of iterations =  1.4

     total cpu time spent up to now is        5.0 secs

     total energy              =     -55.80092174 Ry
     estimated scf accuracy    <       0.00002494 Ry

     total magnetization       =     2.23 Bohr mag/cell
     absolute magnetization    =     2.36 Bohr mag/cell

     iteration #  8     ecut=    30.00 Ry     beta= 0.50
     Davidson diagonalization with overlap
     ethr =  3.12E-07,  avg # of iterations =  2.4

     total cpu time spent up to now is        5.6 secs

     total energy              =     -55.80092635 Ry
     estimated scf accuracy    <       0.00001448 Ry

     total magnetization       =     2.23 Bohr mag/cell
     absolute magnetization    =     2.35 Bohr mag/cell

     iteration #  9     ecut=    30.00 Ry     beta= 0.50
     Davidson diagonalization with overlap
     ethr =  1.81E-07,  avg # of iterations =  1.9

     total cpu time spent up to now is        6.1 secs

     total energy              =     -55.80093254 Ry
     estimated scf accuracy    <       0.00000135 Ry

     total magnetization       =     2.23 Bohr mag/cell
     absolute magnetization    =     2.35 Bohr mag/cell

     iteration # 10     ecut=    30.00 Ry     beta= 0.50
     Davidson diagonalization with overlap
     ethr =  1.69E-08,  avg # of iterations =  3.9

     total cpu time spent up to now is        6.8 secs

     total energy              =     -55.80093397 Ry
     estimated scf accuracy    <       0.00000025 Ry

     total magnetization       =     2.22 Bohr mag/cell
     absolute magnetization    =     2.35 Bohr mag/cell

     iteration # 11     ecut=    30.00 Ry     beta= 0.50
     Davidson diagonalization with overlap
     ethr =  3.07E-09,  avg # of iterations =  3.2

     Magnetic moment per site  (integrated on atomic sphere of radius R)
     atom   1 (R=0.413)  charge=  6.4314  magn=  2.2749

     total cpu time spent up to now is        7.4 secs

     End of self-consistent calculation

     Number of k-points >= 100: set verbosity='high' to print the bands.

     the Fermi energy is    14.1474 ev

!    total energy              =     -55.80093423 Ry
     estimated scf accuracy    <          5.7E-09 Ry
     smearing contrib. (-TS)   =       0.00005795 Ry
     internal energy E=F+TS    =     -55.80099219 Ry

     The total energy is F=E-TS. E is the sum of the following terms:
     one-electron contribution =       8.37729030 Ry
     hartree contribution      =       6.31051386 Ry
     xc contribution           =     -26.47052419 Ry
     ewald contribution        =     -44.01827215 Ry

     total magnetization       =     2.22 Bohr mag/cell
     absolute magnetization    =     2.35 Bohr mag/cell

     convergence has been achieved in  11 iterations

     Forces acting on atoms (cartesian axes, Ry/au):

     atom    1 type  1   force =     0.00000000    0.00000000    0.00000000

     Total force =     0.000000     Total SCF correction =     0.000000


     Computing stress (Cartesian axis) and pressure

          total   stress  (Ry/bohr**3)                   (kbar)     P=       90.13
   0.00061271   0.00000000   0.00000000           90.13        0.00        0.00
   0.00000000   0.00061271   0.00000000            0.00       90.13        0.00
   0.00000000   0.00000000   0.00061271            0.00        0.00       90.13

     Message from routine punch:
     Nothing written, as per user request (disk_io='none')

     init_run     :      0.46s CPU      0.49s WALL (       1 calls)
     electrons    :      6.00s CPU      6.71s WALL (       1 calls)
     forces       :      0.06s CPU      0.06s WALL (       1 calls)
     stress       :      0.32s CPU      0.33s WALL (       1 calls)

     Called by init_run:
     wfcinit      :      0.19s CPU      0.21s WALL (       1 calls)
     potinit      :      0.04s CPU      0.04s WALL (       1 calls)
     hinit0       :      0.21s CPU      0.21s WALL (       1 calls)

     Called by electrons:
     c_bands      :      4.77s CPU      5.36s WALL (      11 calls)
     sum_band     :      0.94s CPU      1.05s WALL (      11 calls)
     v_of_rho     :      0.13s CPU      0.13s WALL (      12 calls)
     newd         :      0.16s CPU      0.17s WALL (      12 calls)
     mix_rho      :      0.01s CPU      0.01s WALL (      11 calls)

     Called by c_bands:
     init_us_2    :      0.20s CPU      0.22s WALL (    5200 calls)
     cegterg      :      4.36s CPU      4.88s WALL (    2288 calls)

     Called by *egterg:
     cdiaghg      :      0.73s CPU      0.82s WALL (    8451 calls)
     h_psi        :      3.00s CPU      3.37s WALL (    8659 calls)
     s_psi        :      0.07s CPU      0.08s WALL (    8659 calls)
     g_psi        :      0.02s CPU      0.03s WALL (    6163 calls)

     Called by h_psi:
     h_psi:calbec :      0.21s CPU      0.25s WALL (    8659 calls)
     vloc_psi     :      2.61s CPU      2.93s WALL (    8659 calls)
     add_vuspsi   :      0.08s CPU      0.09s WALL (    8659 calls)

     General routines
     calbec       :      0.30s CPU      0.34s WALL (   14483 calls)
     fft          :      0.09s CPU      0.09s WALL (     338 calls)
     ffts         :      0.02s CPU      0.02s WALL (      46 calls)
     fftw         :      2.41s CPU      2.70s WALL (  112818 calls)
     interpolate  :      0.02s CPU      0.02s WALL (      24 calls)

     Parallel routines

     PWSCF        :      6.99s CPU      7.75s WALL


   This run was terminated on:  23:16:57  20Oct2025            

=------------------------------------------------------------------------------=
   JOB DONE.
=------------------------------------------------------------------------------=
