
     Program PWSCF v.7.4.1 starts on 21Oct2025 at 18:35:49 

     This program is part of the open-source Quantum ESPRESSO suite
     for quantum simulation of materials; please cite
         "P. Giannozzi et al., J. Phys.:Condens. Matter 21 395502 (2009);
         "P. Giannozzi et al., J. Phys.:Condens. Matter 29 465901 (2017);
         "P. Giannozzi et al., J. Chem. Phys. 152 154105 (2020);
          URL http://www.quantum-espresso.org", 
     in publications or presentations arising from this work. More details at
     http://www.quantum-espresso.org/quote

     Parallel version (MPI), running on     2 processors

     MPI processes distributed on     1 nodes
     164 MiB available memory on the printing compute node when the environment starts

     Waiting for input...
     Reading input from standard input

     Current dimensions of program PWSCF are:
     Max number of different atomic species (ntypx) = 10
     Max number of k-points (npk) =  40000
     Max angular momentum in pseudopotentials (lmaxx) =  4
     file Cu.pz-d-rrkjus.UPF: wavefunction(s)  3D renormalized
     Message from routine setup:
     using ibrav=0 with symmetry is DISCOURAGED, use correct ibrav instead

     R & G space division:  proc/nbgrp/npool/nimage =       2
     Subspace diagonalization in iterative solution of the eigenvalue problem:
     a serial algorithm will be used


     Parallelization info
     --------------------
     sticks:   dense  smooth     PW     G-vecs:    dense   smooth      PW
     Min         656     332     98                19750     6954    1166
     Max         657     333     99                19751     6957    1167
     Sum        1313     665    197                39501    13911    2333

     Using Slab Decomposition



     bravais-lattice index     =            0
     lattice parameter (alat)  =       7.1810  a.u.
     unit-cell volume          =     407.3241 (a.u.)^3
     number of atoms/cell      =            2
     number of atomic types    =            2
     number of electrons       =        22.00
     number of Kohn-Sham states=           15
     kinetic-energy cutoff     =      40.0000  Ry
     charge density cutoff     =     320.0000  Ry
     scf convergence threshold =      1.0E-07
     mixing beta               =       0.7000
     number of iterations used =            8  plain     mixing
     energy convergence thresh.=      1.0E-04
     force convergence thresh. =      1.0E-03
     press convergence thresh. =      5.0E-01
     Exchange-correlation=  SLA  PZ   NOGX NOGC
                           (   1   1   0   0   0   0   0)
     nstep                     =           50


     celldm(1)=   7.180959  celldm(2)=   0.000000  celldm(3)=   0.000000
     celldm(4)=   0.000000  celldm(5)=   0.000000  celldm(6)=   0.000000

     crystal axes: (cart. coord. in units of alat)
               a(1) = (   1.000000   0.000000   0.000000 )  
               a(2) = (   0.000000   1.000000   0.000000 )  
               a(3) = (   0.000000   0.000000   1.100000 )  

     reciprocal axes: (cart. coord. in units 2 pi/alat)
               b(1) = (  1.000000  0.000000  0.000000 )  
               b(2) = (  0.000000  1.000000  0.000000 )  
               b(3) = (  0.000000  0.000000  0.909091 )  


     PseudoPot. # 1 for Au read from file:
     /home/bond/Software/QE/qe-7.4.1/pseudo/Au.pz-d-rrkjus.UPF
     MD5 check sum: 424ffd4ac9c90487cbadcd287136c95b
     Pseudo is Ultrasoft, Zval = 11.0
     Generated by new atomic code, or converted to UPF format
     Using radial grid of 1279 points,  3 beta functions with: 
                l(1) =   2
                l(2) =   2
                l(3) =   1
     Q(r) pseudized with 0 coefficients 


     PseudoPot. # 2 for Cu read from file:
     /home/bond/Software/QE/qe-7.4.1/pseudo/Cu.pz-d-rrkjus.UPF
     MD5 check sum: fd38ae683e239c95a66f426e1f8e5fc7
     Pseudo is Ultrasoft, Zval = 11.0
     Generated by new atomic code, or converted to UPF format
     Using radial grid of  899 points,  3 beta functions with: 
                l(1) =   2
                l(2) =   2
                l(3) =   1
     Q(r) pseudized with 0 coefficients 


     atomic species   valence    mass     pseudopotential
     Au               11.00   196.96657     Au( 1.00)
     Cu               11.00    63.54600     Cu( 1.00)

     16 Sym. Ops., with inversion, found



   Cartesian axes

     site n.     atom                  positions (alat units)
         1        Cu     tau(   1) = (   0.0000000   0.0000000   0.0000000  )
         2        Au     tau(   2) = (   0.5000000   0.5000000   0.5500000  )

     number of k points=   196  Methfessel-Paxton smearing, width (Ry)=  0.0200

     Number of k-points >= 100: set verbosity='high' to print them.

     Dense  grid:    39501 G-vectors     FFT dimensions: (  45,  45,  45)

     Smooth grid:    13911 G-vectors     FFT dimensions: (  30,  30,  32)

     Estimated max dynamical RAM per process >      89.60 MB

     Estimated total dynamical RAM >     179.19 MB

     Initial potential from superposition of free atoms

     starting charge      21.9996, renormalised to      22.0000
     Starting wfcs are   15 randomized atomic wfcs

     total cpu time spent up to now is        3.8 secs

     Self-consistent Calculation

     iteration #  1     ecut=    40.00 Ry     beta= 0.70
     Davidson diagonalization with overlap
     ethr =  1.00E-02,  avg # of iterations =  4.2

     Threshold (ethr) on eigenvalues was too large:
     Diagonalizing with lowered threshold

     Davidson diagonalization with overlap
     ethr =  7.73E-04,  avg # of iterations =  1.1

     total cpu time spent up to now is       15.3 secs

     total energy              =    -154.33520275 Ry
     estimated scf accuracy    <       0.17367059 Ry

     iteration #  2     ecut=    40.00 Ry     beta= 0.70
     Davidson diagonalization with overlap
     ethr =  7.89E-04,  avg # of iterations =  2.6

     total cpu time spent up to now is       22.3 secs

     total energy              =    -154.40261590 Ry
     estimated scf accuracy    <       0.28583202 Ry

     iteration #  3     ecut=    40.00 Ry     beta= 0.70
     Davidson diagonalization with overlap
     ethr =  7.89E-04,  avg # of iterations =  2.0

     total cpu time spent up to now is       28.3 secs

     total energy              =    -154.43354251 Ry
     estimated scf accuracy    <       0.01652476 Ry

     iteration #  4     ecut=    40.00 Ry     beta= 0.70
     Davidson diagonalization with overlap
     ethr =  7.51E-05,  avg # of iterations =  3.5

     total cpu time spent up to now is       34.1 secs

     total energy              =    -154.43427885 Ry
     estimated scf accuracy    <       0.00375050 Ry

     iteration #  5     ecut=    40.00 Ry     beta= 0.70
     Davidson diagonalization with overlap
     ethr =  1.70E-05,  avg # of iterations =  2.7

     total cpu time spent up to now is       40.1 secs

     total energy              =    -154.43543920 Ry
     estimated scf accuracy    <       0.00134821 Ry

     iteration #  6     ecut=    40.00 Ry     beta= 0.70
     Davidson diagonalization with overlap
     ethr =  6.13E-06,  avg # of iterations =  1.3

     total cpu time spent up to now is       44.6 secs

     total energy              =    -154.43551943 Ry
     estimated scf accuracy    <       0.00010235 Ry

     iteration #  7     ecut=    40.00 Ry     beta= 0.70
     Davidson diagonalization with overlap
     ethr =  4.65E-07,  avg # of iterations =  2.3

     total cpu time spent up to now is       49.9 secs

     End of self-consistent calculation

     Number of k-points >= 100: set verbosity='high' to print the bands.

     the Fermi energy is     4.0742 ev

!    total energy              =    -154.43553853 Ry
     estimated scf accuracy    <       0.00000006 Ry
     smearing contrib. (-TS)   =       0.00000971 Ry
     internal energy E=F+TS    =    -154.43554824 Ry

     The total energy is F=E-TS. E is the sum of the following terms:
     one-electron contribution =     -58.21831200 Ry
     hartree contribution      =      46.60631627 Ry
     xc contribution           =     -24.02662084 Ry
     ewald contribution        =    -118.79693167 Ry

     convergence has been achieved in   7 iterations


     Computing stress (Cartesian axis) and pressure

          total   stress  (Ry/bohr**3)                   (kbar)     P=     -162.17
  -0.00110325   0.00000000   0.00000000         -162.29        0.00        0.00
   0.00000000  -0.00110325   0.00000000            0.00     -162.29        0.00
   0.00000000   0.00000000  -0.00110066            0.00        0.00     -161.91


     BFGS Geometry Optimization
     Energy error            =      4.1E-02 Ry
     Gradient error          =      0.0E+00 Ry/Bohr
     Cell gradient error     =      1.6E+02 kbar

     number of scf cycles    =   1
     number of bfgs steps    =   0

     enthalpy           new  =    -154.4355385300 Ry

     new trust radius        =       0.1113302200 bohr
     new conv_thr            =       0.0000001000 Ry

     new unit-cell volume =    374.56655 a.u.^3 (    55.50504 Ang^3 )
     density =      7.79373 g/cm^3

CELL_PARAMETERS (angstrom)
   3.695191470   0.000000000   0.000000000
   0.000000000   3.695191470   0.000000000
   0.000000000   0.000000000   4.064980746

ATOMIC_POSITIONS (angstrom)
Cu               0.0000000000        0.0000000000        0.0000000000    0   0   0
Au               1.8475957350        1.8475957350        2.0324903732    0   0   0


     Message from routine punch:
     Nothing written, as per user request (disk_io='none')
     NEW-OLD atomic charge density approx. for the potential
     New effective cutoffs (rho, wfc):  338.37   42.30

     total cpu time spent up to now is       52.6 secs

     Self-consistent Calculation

     iteration #  1     ecut=    40.00 Ry     beta= 0.70
     Davidson diagonalization with overlap
     ethr =  1.00E-06,  avg # of iterations =  5.5

     total cpu time spent up to now is       63.0 secs

     total energy              =    -154.47347937 Ry
     estimated scf accuracy    <       0.00096341 Ry

     iteration #  2     ecut=    40.00 Ry     beta= 0.70
     Davidson diagonalization with overlap
     ethr =  4.38E-06,  avg # of iterations =  2.1

     total cpu time spent up to now is       68.6 secs

     total energy              =    -154.47360849 Ry
     estimated scf accuracy    <       0.00141688 Ry

     iteration #  3     ecut=    40.00 Ry     beta= 0.70
     Davidson diagonalization with overlap
     ethr =  4.38E-06,  avg # of iterations =  2.0

     total cpu time spent up to now is       74.7 secs

     total energy              =    -154.47388170 Ry
     estimated scf accuracy    <       0.00013581 Ry

     iteration #  4     ecut=    40.00 Ry     beta= 0.70
     Davidson diagonalization with overlap
     ethr =  6.17E-07,  avg # of iterations =  2.0

     total cpu time spent up to now is       81.1 secs

     total energy              =    -154.47391217 Ry
     estimated scf accuracy    <       0.00000647 Ry

     iteration #  5     ecut=    40.00 Ry     beta= 0.70
     Davidson diagonalization with overlap
     ethr =  2.94E-08,  avg # of iterations =  1.3

     total cpu time spent up to now is       88.0 secs

     End of self-consistent calculation

     Number of k-points >= 100: set verbosity='high' to print the bands.

     the Fermi energy is     4.9212 ev

!    total energy              =    -154.47391314 Ry
     estimated scf accuracy    <       0.00000004 Ry
     smearing contrib. (-TS)   =       0.00001293 Ry
     internal energy E=F+TS    =    -154.47392607 Ry

     The total energy is F=E-TS. E is the sum of the following terms:
     one-electron contribution =     -52.70659648 Ry
     hartree contribution      =      44.43955289 Ry
     xc contribution           =     -24.04317159 Ry
     ewald contribution        =    -122.16371088 Ry

     convergence has been achieved in   5 iterations


     Computing stress (Cartesian axis) and pressure

          total   stress  (Ry/bohr**3)                   (kbar)     P=     -184.72
  -0.00125839   0.00000000   0.00000000         -185.12        0.00        0.00
   0.00000000  -0.00125839   0.00000000            0.00     -185.12        0.00
   0.00000000   0.00000000  -0.00125024            0.00        0.00     -183.92

     Energy error            =      3.8E-02 Ry
     Gradient error          =      0.0E+00 Ry/Bohr
     Cell gradient error     =      1.9E+02 kbar

     number of scf cycles    =   2
     number of bfgs steps    =   1

     enthalpy           old  =    -154.4355385300 Ry
     enthalpy           new  =    -154.4739131367 Ry

     CASE: enthalpy          _new < enthalpy          _old


     WARNING: bfgs curvature condition failed, Theta= 0.743
     uphill step: resetting bfgs history

     new trust radius        =       0.1217728375 bohr
     new conv_thr            =       0.0000000010 Ry

     new unit-cell volume =    340.38727 a.u.^3 (    50.44019 Ang^3 )
     density =      8.57632 g/cm^3

CELL_PARAMETERS (angstrom)
   3.578941491   0.000000000   0.000000000
   0.000000000   3.578941491   0.000000000
   0.000000000   0.000000000   3.937925604

ATOMIC_POSITIONS (angstrom)
Cu               0.0000000000        0.0000000000        0.0000000000    0   0   0
Au               1.7894707454        1.7894707454        1.9689628019    0   0   0


     Message from routine punch:
     Nothing written, as per user request (disk_io='none')
     NEW-OLD atomic charge density approx. for the potential
     New effective cutoffs (rho, wfc):  360.65   45.09

     total cpu time spent up to now is       91.0 secs

     Self-consistent Calculation

     iteration #  1     ecut=    40.00 Ry     beta= 0.70
     Davidson diagonalization with overlap
     ethr =  1.00E-06,  avg # of iterations =  5.8

     total cpu time spent up to now is      103.3 secs

     total energy              =    -154.51875143 Ry
     estimated scf accuracy    <       0.00114456 Ry

     iteration #  2     ecut=    40.00 Ry     beta= 0.70
     Davidson diagonalization with overlap
     ethr =  5.20E-06,  avg # of iterations =  2.0

     total cpu time spent up to now is      108.9 secs

     total energy              =    -154.51893686 Ry
     estimated scf accuracy    <       0.00147723 Ry

     iteration #  3     ecut=    40.00 Ry     beta= 0.70
     Davidson diagonalization with overlap
     ethr =  5.20E-06,  avg # of iterations =  2.0

     total cpu time spent up to now is      114.2 secs

     total energy              =    -154.51921991 Ry
     estimated scf accuracy    <       0.00015237 Ry

     iteration #  4     ecut=    40.00 Ry     beta= 0.70
     Davidson diagonalization with overlap
     ethr =  6.93E-07,  avg # of iterations =  2.0

     total cpu time spent up to now is      119.3 secs

     total energy              =    -154.51925425 Ry
     estimated scf accuracy    <       0.00000864 Ry

     iteration #  5     ecut=    40.00 Ry     beta= 0.70
     Davidson diagonalization with overlap
     ethr =  3.93E-08,  avg # of iterations =  1.3

     total cpu time spent up to now is      124.1 secs

     total energy              =    -154.51925553 Ry
     estimated scf accuracy    <       0.00000005 Ry

     iteration #  6     ecut=    40.00 Ry     beta= 0.70
     Davidson diagonalization with overlap
     ethr =  2.08E-10,  avg # of iterations =  2.8

     total cpu time spent up to now is      130.3 secs

     total energy              =    -154.51925556 Ry
     estimated scf accuracy    <          7.8E-09 Ry

     iteration #  7     ecut=    40.00 Ry     beta= 0.70
     Davidson diagonalization with overlap
     ethr =  3.52E-11,  avg # of iterations =  2.0

     total cpu time spent up to now is      135.2 secs

     End of self-consistent calculation

     Number of k-points >= 100: set verbosity='high' to print the bands.

     the Fermi energy is     5.9822 ev

!    total energy              =    -154.51925556 Ry
     estimated scf accuracy    <          4.2E-11 Ry
     smearing contrib. (-TS)   =       0.00001759 Ry
     internal energy E=F+TS    =    -154.51927315 Ry

     The total energy is F=E-TS. E is the sum of the following terms:
     one-electron contribution =     -46.31014654 Ry
     hartree contribution      =      41.98442928 Ry
     xc contribution           =     -24.07064248 Ry
     ewald contribution        =    -126.12291341 Ry

     convergence has been achieved in   7 iterations


     Computing stress (Cartesian axis) and pressure

          total   stress  (Ry/bohr**3)                   (kbar)     P=     -207.18
  -0.00141371   0.00000000   0.00000000         -207.96        0.00        0.00
   0.00000000  -0.00141371   0.00000000            0.00     -207.96        0.00
   0.00000000   0.00000000  -0.00139762            0.00        0.00     -205.60

     Energy error            =      4.5E-02 Ry
     Gradient error          =      0.0E+00 Ry/Bohr
     Cell gradient error     =      2.1E+02 kbar

     number of scf cycles    =   3
     number of bfgs steps    =   2

     enthalpy           old  =    -154.4739131367 Ry
     enthalpy           new  =    -154.5192555632 Ry

     CASE: enthalpy          _new < enthalpy          _old


     WARNING: bfgs curvature condition failed, Theta= 0.760
     new trust radius        =       0.1797819936 bohr
     new conv_thr            =       0.0000000010 Ry

     new unit-cell volume =    293.34604 a.u.^3 (    43.46940 Ang^3 )
     density =      9.95163 g/cm^3

CELL_PARAMETERS (angstrom)
   3.406469046   0.000000000   0.000000000
   0.000000000   3.406469046   0.000000000
   0.000000000   0.000000000   3.746060033

ATOMIC_POSITIONS (angstrom)
Cu               0.0000000000        0.0000000000        0.0000000000    0   0   0
Au               1.7032345229        1.7032345229        1.8730300163    0   0   0


     Message from routine punch:
     Nothing written, as per user request (disk_io='none')
     NEW-OLD atomic charge density approx. for the potential
     New effective cutoffs (rho, wfc):  398.28   49.80

     total cpu time spent up to now is      137.8 secs

     Self-consistent Calculation

     iteration #  1     ecut=    40.00 Ry     beta= 0.70
     Davidson diagonalization with overlap
     ethr =  1.00E-06,  avg # of iterations =  7.5

     total cpu time spent up to now is      149.0 secs

     total energy              =    -154.58927077 Ry
     estimated scf accuracy    <       0.00250467 Ry

     iteration #  2     ecut=    40.00 Ry     beta= 0.70
     Davidson diagonalization with overlap
     ethr =  1.14E-05,  avg # of iterations =  2.0

     total cpu time spent up to now is      154.6 secs

     total energy              =    -154.58977093 Ry
     estimated scf accuracy    <       0.00269191 Ry

     iteration #  3     ecut=    40.00 Ry     beta= 0.70
     Davidson diagonalization with overlap
     ethr =  1.14E-05,  avg # of iterations =  2.0

     total cpu time spent up to now is      159.7 secs

     total energy              =    -154.59027992 Ry
     estimated scf accuracy    <       0.00027204 Ry

     iteration #  4     ecut=    40.00 Ry     beta= 0.70
     Davidson diagonalization with overlap
     ethr =  1.24E-06,  avg # of iterations =  2.0

     total cpu time spent up to now is      165.0 secs

     total energy              =    -154.59034292 Ry
     estimated scf accuracy    <       0.00002143 Ry

     iteration #  5     ecut=    40.00 Ry     beta= 0.70
     Davidson diagonalization with overlap
     ethr =  9.74E-08,  avg # of iterations =  1.2

     total cpu time spent up to now is      169.4 secs

     total energy              =    -154.59034616 Ry
     estimated scf accuracy    <       0.00000006 Ry

     iteration #  6     ecut=    40.00 Ry     beta= 0.70
     Davidson diagonalization with overlap
     ethr =  2.78E-10,  avg # of iterations =  3.0

     total cpu time spent up to now is      175.6 secs

     total energy              =    -154.59034621 Ry
     estimated scf accuracy    <       0.00000001 Ry

     iteration #  7     ecut=    40.00 Ry     beta= 0.70
     Davidson diagonalization with overlap
     ethr =  5.11E-11,  avg # of iterations =  1.9

     total cpu time spent up to now is      180.6 secs

     End of self-consistent calculation

     Number of k-points >= 100: set verbosity='high' to print the bands.

     the Fermi energy is     7.8610 ev

!    total energy              =    -154.59034621 Ry
     estimated scf accuracy    <          4.6E-11 Ry
     smearing contrib. (-TS)   =       0.00000263 Ry
     internal energy E=F+TS    =    -154.59034884 Ry

     The total energy is F=E-TS. E is the sum of the following terms:
     one-electron contribution =     -36.13990423 Ry
     hartree contribution      =      38.21650699 Ry
     xc contribution           =     -24.13355477 Ry
     ewald contribution        =    -132.53339683 Ry

     convergence has been achieved in   7 iterations


     Computing stress (Cartesian axis) and pressure

          total   stress  (Ry/bohr**3)                   (kbar)     P=     -235.92
  -0.00161461   0.00000000   0.00000000         -237.52        0.00        0.00
   0.00000000  -0.00161461   0.00000000            0.00     -237.52        0.00
   0.00000000   0.00000000  -0.00158199            0.00        0.00     -232.72

     Energy error            =      7.1E-02 Ry
     Gradient error          =      0.0E+00 Ry/Bohr
     Cell gradient error     =      2.4E+02 kbar

     number of scf cycles    =   4
     number of bfgs steps    =   3

     enthalpy           old  =    -154.5192555632 Ry
     enthalpy           new  =    -154.5903462095 Ry

     CASE: enthalpy          _new < enthalpy          _old


     WARNING: bfgs curvature condition failed, Theta= 0.733
     uphill step: resetting bfgs history

     new trust radius        =       0.1382701666 bohr
     new conv_thr            =       0.0000000010 Ry

     new unit-cell volume =    259.45792 a.u.^3 (    38.44770 Ang^3 )
     density =     11.25142 g/cm^3

CELL_PARAMETERS (angstrom)
   3.268965840   0.000000000   0.000000000
   0.000000000   3.268965840   0.000000000
   0.000000000   0.000000000   3.597903976

ATOMIC_POSITIONS (angstrom)
Cu               0.0000000000        0.0000000000        0.0000000000    0   0   0
Au               1.6344829200        1.6344829200        1.7989519881    0   0   0


     Message from routine punch:
     Nothing written, as per user request (disk_io='none')
     NEW-OLD atomic charge density approx. for the potential
     New effective cutoffs (rho, wfc):  432.26   54.05

     total cpu time spent up to now is      183.1 secs

     Self-consistent Calculation

     iteration #  1     ecut=    40.00 Ry     beta= 0.70
     Davidson diagonalization with overlap
     ethr =  1.00E-06,  avg # of iterations =  7.1

     total cpu time spent up to now is      194.2 secs

     total energy              =    -154.64512605 Ry
     estimated scf accuracy    <       0.00140037 Ry

     iteration #  2     ecut=    40.00 Ry     beta= 0.70
     Davidson diagonalization with overlap
     ethr =  6.37E-06,  avg # of iterations =  2.0

     total cpu time spent up to now is      200.2 secs

     total energy              =    -154.64542040 Ry
     estimated scf accuracy    <       0.00129187 Ry

     iteration #  3     ecut=    40.00 Ry     beta= 0.70
     Davidson diagonalization with overlap
     ethr =  5.87E-06,  avg # of iterations =  2.0

     total cpu time spent up to now is      205.8 secs

     total energy              =    -154.64566748 Ry
     estimated scf accuracy    <       0.00013856 Ry

     iteration #  4     ecut=    40.00 Ry     beta= 0.70
     Davidson diagonalization with overlap
     ethr =  6.30E-07,  avg # of iterations =  2.0

     total cpu time spent up to now is      210.7 secs

     total energy              =    -154.64569999 Ry
     estimated scf accuracy    <       0.00001330 Ry

     iteration #  5     ecut=    40.00 Ry     beta= 0.70
     Davidson diagonalization with overlap
     ethr =  6.05E-08,  avg # of iterations =  1.1

     total cpu time spent up to now is      215.2 secs

     total energy              =    -154.64570202 Ry
     estimated scf accuracy    <       0.00000003 Ry

     iteration #  6     ecut=    40.00 Ry     beta= 0.70
     Davidson diagonalization with overlap
     ethr =  1.31E-10,  avg # of iterations =  3.1

     total cpu time spent up to now is      221.5 secs

     total energy              =    -154.64570205 Ry
     estimated scf accuracy    <          4.8E-09 Ry

     iteration #  7     ecut=    40.00 Ry     beta= 0.70
     Davidson diagonalization with overlap
     ethr =  2.20E-11,  avg # of iterations =  1.9

     total cpu time spent up to now is      226.3 secs

     End of self-consistent calculation

     Number of k-points >= 100: set verbosity='high' to print the bands.

     the Fermi energy is     9.6510 ev

!    total energy              =    -154.64570205 Ry
     estimated scf accuracy    <          2.6E-11 Ry
     smearing contrib. (-TS)   =      -0.00000200 Ry
     internal energy E=F+TS    =    -154.64570005 Ry

     The total energy is F=E-TS. E is the sum of the following terms:
     one-electron contribution =     -27.54332343 Ry
     hartree contribution      =      35.17532295 Ry
     xc contribution           =     -24.20877012 Ry
     ewald contribution        =    -138.06892945 Ry

     convergence has been achieved in   7 iterations


     Computing stress (Cartesian axis) and pressure

          total   stress  (Ry/bohr**3)                   (kbar)     P=     -240.90
  -0.00165450   0.00000000   0.00000000         -243.39        0.00        0.00
   0.00000000  -0.00165450   0.00000000            0.00     -243.39        0.00
   0.00000000   0.00000000  -0.00160381            0.00        0.00     -235.93

     Energy error            =      5.5E-02 Ry
     Gradient error          =      0.0E+00 Ry/Bohr
     Cell gradient error     =      2.4E+02 kbar

     number of scf cycles    =   5
     number of bfgs steps    =   4

     enthalpy           old  =    -154.5903462095 Ry
     enthalpy           new  =    -154.6457020493 Ry

     CASE: enthalpy          _new < enthalpy          _old


     WARNING: bfgs curvature condition failed, Theta= 0.850
     new trust radius        =       0.2032624532 bohr
     new conv_thr            =       0.0000000010 Ry

     new unit-cell volume =    213.78636 a.u.^3 (    31.67987 Ang^3 )
     density =     13.65508 g/cm^3

CELL_PARAMETERS (angstrom)
   3.062711031   0.000000000   0.000000000
   0.000000000   3.062711031   0.000000000
   0.000000000   0.000000000   3.377313334

ATOMIC_POSITIONS (angstrom)
Cu               0.0000000000        0.0000000000        0.0000000000    0   0   0
Au               1.5313555157        1.5313555157        1.6886566668    0   0   0


     Message from routine punch:
     Nothing written, as per user request (disk_io='none')
     NEW-OLD atomic charge density approx. for the potential
     New effective cutoffs (rho, wfc):  492.20   61.58

     total cpu time spent up to now is      228.7 secs

     Self-consistent Calculation

     iteration #  1     ecut=    40.00 Ry     beta= 0.70
     Davidson diagonalization with overlap
     ethr =  1.00E-06,  avg # of iterations =  8.4

     total cpu time spent up to now is      240.8 secs

     total energy              =    -154.71193811 Ry
     estimated scf accuracy    <       0.00244099 Ry

     iteration #  2     ecut=    40.00 Ry     beta= 0.70
     Davidson diagonalization with overlap
     ethr =  1.11E-05,  avg # of iterations =  2.0

     total cpu time spent up to now is      246.6 secs

     total energy              =    -154.71240397 Ry
     estimated scf accuracy    <       0.00202772 Ry

     iteration #  3     ecut=    40.00 Ry     beta= 0.70
     Davidson diagonalization with overlap
     ethr =  9.22E-06,  avg # of iterations =  2.0

     total cpu time spent up to now is      254.3 secs

     total energy              =    -154.71280741 Ry
     estimated scf accuracy    <       0.00033085 Ry

     iteration #  4     ecut=    40.00 Ry     beta= 0.70
     Davidson diagonalization with overlap
     ethr =  1.50E-06,  avg # of iterations =  2.0

     total cpu time spent up to now is      260.7 secs

     total energy              =    -154.71288127 Ry
     estimated scf accuracy    <       0.00001795 Ry

     iteration #  5     ecut=    40.00 Ry     beta= 0.70
     Davidson diagonalization with overlap
     ethr =  8.16E-08,  avg # of iterations =  1.4

     total cpu time spent up to now is      265.6 secs

     total energy              =    -154.71288400 Ry
     estimated scf accuracy    <       0.00000005 Ry

     iteration #  6     ecut=    40.00 Ry     beta= 0.70
     Davidson diagonalization with overlap
     ethr =  2.37E-10,  avg # of iterations =  2.7

     total cpu time spent up to now is      271.6 secs

     total energy              =    -154.71288404 Ry
     estimated scf accuracy    <          4.1E-09 Ry

     iteration #  7     ecut=    40.00 Ry     beta= 0.70
     Davidson diagonalization with overlap
     ethr =  1.86E-11,  avg # of iterations =  2.0

     total cpu time spent up to now is      276.9 secs

     End of self-consistent calculation

     Number of k-points >= 100: set verbosity='high' to print the bands.

     the Fermi energy is    12.9789 ev

!    total energy              =    -154.71288404 Ry
     estimated scf accuracy    <          6.8E-11 Ry
     smearing contrib. (-TS)   =       0.00002070 Ry
     internal energy E=F+TS    =    -154.71290474 Ry

     The total energy is F=E-TS. E is the sum of the following terms:
     one-electron contribution =     -13.61676189 Ry
     hartree contribution      =      30.55909415 Ry
     xc contribution           =     -24.38198064 Ry
     ewald contribution        =    -147.27325637 Ry

     convergence has been achieved in   7 iterations


     Computing stress (Cartesian axis) and pressure

          total   stress  (Ry/bohr**3)                   (kbar)     P=     -166.40
  -0.00115303   0.00000000   0.00000000         -169.62        0.00        0.00
   0.00000000  -0.00115303   0.00000000            0.00     -169.62        0.00
   0.00000000   0.00000000  -0.00108735            0.00        0.00     -159.95

     Energy error            =      6.7E-02 Ry
     Gradient error          =      0.0E+00 Ry/Bohr
     Cell gradient error     =      1.7E+02 kbar

     number of scf cycles    =   6
     number of bfgs steps    =   5

     enthalpy           old  =    -154.6457020493 Ry
     enthalpy           new  =    -154.7128840385 Ry

     CASE: enthalpy          _new < enthalpy          _old

     new trust radius        =       0.2953992001 bohr
     new conv_thr            =       0.0000000010 Ry

     new unit-cell volume =    156.15804 a.u.^3 (    23.14023 Ang^3 )
     density =     18.69434 g/cm^3

CELL_PARAMETERS (angstrom)
   2.753328818   0.000000000   0.000000000
   0.000000000   2.753328818   0.000000000
   0.000000000   0.000000000   3.052471211

ATOMIC_POSITIONS (angstrom)
Cu               0.0000000000        0.0000000000        0.0000000000    0   0   0
Au               1.3766644092        1.3766644092        1.5262356054    0   0   0


     Message from routine punch:
     Nothing written, as per user request (disk_io='none')
     NEW-OLD atomic charge density approx. for the potential
     New effective cutoffs (rho, wfc):  608.61   76.19

     total cpu time spent up to now is      279.5 secs

     Self-consistent Calculation

     iteration #  1     ecut=    40.00 Ry     beta= 0.70
     Davidson diagonalization with overlap
     c_bands:  1 eigenvalues not converged
     ethr =  1.00E-06,  avg # of iterations =  9.7

     total cpu time spent up to now is      292.9 secs

     total energy              =    -154.68110708 Ry
     estimated scf accuracy    <       0.00194886 Ry

     iteration #  2     ecut=    40.00 Ry     beta= 0.70
     Davidson diagonalization with overlap
     ethr =  8.86E-06,  avg # of iterations =  2.0

     total cpu time spent up to now is      299.0 secs

     total energy              =    -154.68114049 Ry
     estimated scf accuracy    <       0.00393457 Ry

     iteration #  3     ecut=    40.00 Ry     beta= 0.70
     Davidson diagonalization with overlap
     ethr =  8.86E-06,  avg # of iterations =  2.0

     total cpu time spent up to now is      303.9 secs

     total energy              =    -154.68193112 Ry
     estimated scf accuracy    <       0.00006620 Ry

     iteration #  4     ecut=    40.00 Ry     beta= 0.70
     Davidson diagonalization with overlap
     ethr =  3.01E-07,  avg # of iterations =  2.0

     total cpu time spent up to now is      309.0 secs

     total energy              =    -154.68194449 Ry
     estimated scf accuracy    <       0.00000616 Ry

     iteration #  5     ecut=    40.00 Ry     beta= 0.70
     Davidson diagonalization with overlap
     ethr =  2.80E-08,  avg # of iterations =  1.8

     total cpu time spent up to now is      314.3 secs

     total energy              =    -154.68194548 Ry
     estimated scf accuracy    <       0.00000005 Ry

     iteration #  6     ecut=    40.00 Ry     beta= 0.70
     Davidson diagonalization with overlap
     ethr =  2.22E-10,  avg # of iterations =  2.2

     total cpu time spent up to now is      320.1 secs

     total energy              =    -154.68194550 Ry
     estimated scf accuracy    <          1.1E-09 Ry

     iteration #  7     ecut=    40.00 Ry     beta= 0.70
     Davidson diagonalization with overlap
     ethr =  5.18E-12,  avg # of iterations =  2.1

     total cpu time spent up to now is      326.4 secs

     End of self-consistent calculation

     Number of k-points >= 100: set verbosity='high' to print the bands.

     the Fermi energy is    20.2041 ev

!    total energy              =    -154.68194550 Ry
     estimated scf accuracy    <          3.0E-11 Ry
     smearing contrib. (-TS)   =       0.00007437 Ry
     internal energy E=F+TS    =    -154.68201987 Ry

     The total energy is F=E-TS. E is the sum of the following terms:
     one-electron contribution =       9.91711024 Ry
     hartree contribution      =      23.79602612 Ry
     xc contribution           =     -24.86687106 Ry
     ewald contribution        =    -163.52828516 Ry

     convergence has been achieved in   7 iterations


     Computing stress (Cartesian axis) and pressure

          total   stress  (Ry/bohr**3)                   (kbar)     P=      541.09
   0.00369474   0.00000000   0.00000000          543.52        0.00        0.00
   0.00000000   0.00369474   0.00000000            0.00      543.52        0.00
   0.00000000   0.00000000   0.00364528            0.00        0.00      536.24

     Energy error            =      3.1E-02 Ry
     Gradient error          =      0.0E+00 Ry/Bohr
     Cell gradient error     =      5.4E+02 kbar

     number of scf cycles    =   7
     number of bfgs steps    =   6

     enthalpy           old  =    -154.7128840385 Ry
     enthalpy           new  =    -154.6819454954 Ry

     CASE: enthalpy          _new > enthalpy          _old

     new trust radius        =       0.0982795707 bohr
     new conv_thr            =       0.0000000010 Ry

     new unit-cell volume =    192.24208 a.u.^3 (    28.48734 Ang^3 )
     density =     15.18539 g/cm^3

CELL_PARAMETERS (angstrom)
   2.954440775   0.000000000   0.000000000
   0.000000000   2.954440775   0.000000000
   0.000000000   0.000000000   3.263632784

ATOMIC_POSITIONS (angstrom)
Cu               0.0000000000        0.0000000000        0.0000000000    0   0   0
Au               1.4772203874        1.4772203874        1.6318163920    0   0   0


     Message from routine punch:
     Nothing written, as per user request (disk_io='none')
     NEW-OLD atomic charge density approx. for the potential
     New effective cutoffs (rho, wfc):  528.77   66.17

     negative rho (up, down):  1.521E-06 0.000E+00

     total cpu time spent up to now is      329.1 secs

     Self-consistent Calculation

     iteration #  1     ecut=    40.00 Ry     beta= 0.70
     Davidson diagonalization with overlap
     ethr =  1.00E-06,  avg # of iterations =  8.9

     total cpu time spent up to now is      341.5 secs

     total energy              =    -154.72881789 Ry
     estimated scf accuracy    <       0.00082977 Ry

     iteration #  2     ecut=    40.00 Ry     beta= 0.70
     Davidson diagonalization with overlap
     ethr =  3.77E-06,  avg # of iterations =  2.0

     total cpu time spent up to now is      347.2 secs

     total energy              =    -154.72877822 Ry
     estimated scf accuracy    <       0.00256984 Ry

     iteration #  3     ecut=    40.00 Ry     beta= 0.70
     Davidson diagonalization with overlap
     ethr =  3.77E-06,  avg # of iterations =  2.0

     total cpu time spent up to now is      352.4 secs

     total energy              =    -154.72922781 Ry
     estimated scf accuracy    <       0.00000852 Ry

     iteration #  4     ecut=    40.00 Ry     beta= 0.70
     Davidson diagonalization with overlap
     ethr =  3.87E-08,  avg # of iterations =  1.8

     total cpu time spent up to now is      357.2 secs

     total energy              =    -154.72922852 Ry
     estimated scf accuracy    <       0.00000050 Ry

     iteration #  5     ecut=    40.00 Ry     beta= 0.70
     Davidson diagonalization with overlap
     ethr =  2.29E-09,  avg # of iterations =  2.0

     total cpu time spent up to now is      362.3 secs

     total energy              =    -154.72922862 Ry
     estimated scf accuracy    <       0.00000004 Ry

     iteration #  6     ecut=    40.00 Ry     beta= 0.70
     Davidson diagonalization with overlap
     ethr =  1.75E-10,  avg # of iterations =  2.0

     total cpu time spent up to now is      368.0 secs

     End of self-consistent calculation

     Number of k-points >= 100: set verbosity='high' to print the bands.

     the Fermi energy is    15.1470 ev

!    total energy              =    -154.72922862 Ry
     estimated scf accuracy    <          2.3E-10 Ry
     smearing contrib. (-TS)   =       0.00012172 Ry
     internal energy E=F+TS    =    -154.72935034 Ry

     The total energy is F=E-TS. E is the sum of the following terms:
     one-electron contribution =      -5.79485332 Ry
     hartree contribution      =      28.16101733 Ry
     xc contribution           =     -24.51463488 Ry
     ewald contribution        =    -152.58087946 Ry

     convergence has been achieved in   6 iterations


     Computing stress (Cartesian axis) and pressure

          total   stress  (Ry/bohr**3)                   (kbar)     P=      -41.27
  -0.00029918   0.00000000   0.00000000          -44.01        0.00        0.00
   0.00000000  -0.00029918   0.00000000            0.00      -44.01        0.00
   0.00000000   0.00000000  -0.00024333            0.00        0.00      -35.80

     Energy error            =      1.6E-02 Ry
     Gradient error          =      0.0E+00 Ry/Bohr
     Cell gradient error     =      4.4E+01 kbar

     number of scf cycles    =   8
     number of bfgs steps    =   6

     enthalpy           old  =    -154.7128840385 Ry
     enthalpy           new  =    -154.7292286225 Ry

     CASE: enthalpy          _new < enthalpy          _old

     new trust radius        =       0.0316373769 bohr
     new conv_thr            =       0.0000000010 Ry

     new unit-cell volume =    186.05144 a.u.^3 (    27.56998 Ang^3 )
     density =     15.69066 g/cm^3

CELL_PARAMETERS (angstrom)
   2.920733664   0.000000000   0.000000000
   0.000000000   2.920733664   0.000000000
   0.000000000   0.000000000   3.231859887

ATOMIC_POSITIONS (angstrom)
Cu               0.0000000000        0.0000000000        0.0000000000    0   0   0
Au               1.4603668320        1.4603668320        1.6159299435    0   0   0


     Message from routine punch:
     Nothing written, as per user request (disk_io='none')
     NEW-OLD atomic charge density approx. for the potential
     New effective cutoffs (rho, wfc):  540.94   67.71

     total cpu time spent up to now is      370.9 secs

     Self-consistent Calculation

     iteration #  1     ecut=    40.00 Ry     beta= 0.70
     Davidson diagonalization with overlap
     ethr =  1.00E-06,  avg # of iterations =  4.6

     total cpu time spent up to now is      380.7 secs

     total energy              =    -154.72979643 Ry
     estimated scf accuracy    <       0.00002344 Ry

     iteration #  2     ecut=    40.00 Ry     beta= 0.70
     Davidson diagonalization with overlap
     ethr =  1.07E-07,  avg # of iterations =  2.0

     total cpu time spent up to now is      387.8 secs

     total energy              =    -154.72979595 Ry
     estimated scf accuracy    <       0.00005013 Ry

     iteration #  3     ecut=    40.00 Ry     beta= 0.70
     Davidson diagonalization with overlap
     ethr =  1.07E-07,  avg # of iterations =  2.1

     total cpu time spent up to now is      393.2 secs

     total energy              =    -154.72980608 Ry
     estimated scf accuracy    <       0.00000153 Ry

     iteration #  4     ecut=    40.00 Ry     beta= 0.70
     Davidson diagonalization with overlap
     ethr =  6.97E-09,  avg # of iterations =  2.0

     total cpu time spent up to now is      398.4 secs

     total energy              =    -154.72980640 Ry
     estimated scf accuracy    <       0.00000014 Ry

     iteration #  5     ecut=    40.00 Ry     beta= 0.70
     Davidson diagonalization with overlap
     ethr =  6.15E-10,  avg # of iterations =  1.8

     total cpu time spent up to now is      403.4 secs

     End of self-consistent calculation

     Number of k-points >= 100: set verbosity='high' to print the bands.

     the Fermi energy is    15.8694 ev

!    total energy              =    -154.72980642 Ry
     estimated scf accuracy    <          8.3E-10 Ry
     smearing contrib. (-TS)   =       0.00012484 Ry
     internal energy E=F+TS    =    -154.72993126 Ry

     The total energy is F=E-TS. E is the sum of the following terms:
     one-electron contribution =      -3.35797138 Ry
     hartree contribution      =      27.44410905 Ry
     xc contribution           =     -24.56162817 Ry
     ewald contribution        =    -154.25444076 Ry

     convergence has been achieved in   5 iterations


     Computing stress (Cartesian axis) and pressure

          total   stress  (Ry/bohr**3)                   (kbar)     P=       15.98
   0.00009272   0.00000000   0.00000000           13.64        0.00        0.00
   0.00000000   0.00009272   0.00000000            0.00       13.64        0.00
   0.00000000   0.00000000   0.00014042            0.00        0.00       20.66

     Energy error            =      5.8E-04 Ry
     Gradient error          =      0.0E+00 Ry/Bohr
     Cell gradient error     =      2.1E+01 kbar

     number of scf cycles    =   9
     number of bfgs steps    =   7

     enthalpy           old  =    -154.7292286225 Ry
     enthalpy           new  =    -154.7298064198 Ry

     CASE: enthalpy          _new < enthalpy          _old

     new trust radius        =       0.0092229226 bohr
     new conv_thr            =       0.0000000010 Ry

     new unit-cell volume =    187.71481 a.u.^3 (    27.81646 Ang^3 )
     density =     15.55163 g/cm^3

CELL_PARAMETERS (angstrom)
   2.928814102   0.000000000   0.000000000
   0.000000000   2.928814102   0.000000000
   0.000000000   0.000000000   3.242786224

ATOMIC_POSITIONS (angstrom)
Cu               0.0000000000        0.0000000000        0.0000000000    0   0   0
Au               1.4644070512        1.4644070512        1.6213931118    0   0   0


     Message from routine punch:
     Nothing written, as per user request (disk_io='none')
     NEW-OLD atomic charge density approx. for the potential
     New effective cutoffs (rho, wfc):  537.93   67.33

     total cpu time spent up to now is      406.2 secs

     Self-consistent Calculation

     iteration #  1     ecut=    40.00 Ry     beta= 0.70
     Davidson diagonalization with overlap
     ethr =  1.00E-06,  avg # of iterations =  3.0

     Threshold (ethr) on eigenvalues was too large:
     Diagonalizing with lowered threshold

     Davidson diagonalization with overlap
     ethr =  7.32E-09,  avg # of iterations =  2.0

     total cpu time spent up to now is      418.8 secs

     total energy              =    -154.72989757 Ry
     estimated scf accuracy    <       0.00000166 Ry

     iteration #  2     ecut=    40.00 Ry     beta= 0.70
     Davidson diagonalization with overlap
     ethr =  7.57E-09,  avg # of iterations =  2.0

     total cpu time spent up to now is      424.8 secs

     total energy              =    -154.72989751 Ry
     estimated scf accuracy    <       0.00000383 Ry

     iteration #  3     ecut=    40.00 Ry     beta= 0.70
     Davidson diagonalization with overlap
     ethr =  7.57E-09,  avg # of iterations =  2.0

     total cpu time spent up to now is      430.4 secs

     total energy              =    -154.72989826 Ry
     estimated scf accuracy    <       0.00000009 Ry

     iteration #  4     ecut=    40.00 Ry     beta= 0.70
     Davidson diagonalization with overlap
     ethr =  4.12E-10,  avg # of iterations =  2.0

     total cpu time spent up to now is      436.3 secs

     total energy              =    -154.72989828 Ry
     estimated scf accuracy    <       0.00000001 Ry

     iteration #  5     ecut=    40.00 Ry     beta= 0.70
     Davidson diagonalization with overlap
     ethr =  4.69E-11,  avg # of iterations =  1.8

     total cpu time spent up to now is      442.0 secs

     End of self-consistent calculation

     Number of k-points >= 100: set verbosity='high' to print the bands.

     the Fermi energy is    15.6702 ev

!    total energy              =    -154.72989828 Ry
     estimated scf accuracy    <          6.5E-11 Ry
     smearing contrib. (-TS)   =       0.00012409 Ry
     internal energy E=F+TS    =    -154.73002237 Ry

     The total energy is F=E-TS. E is the sum of the following terms:
     one-electron contribution =      -4.02225465 Ry
     hartree contribution      =      27.63814372 Ry
     xc contribution           =     -24.54856305 Ry
     ewald contribution        =    -153.79734840 Ry

     convergence has been achieved in   5 iterations


     Computing stress (Cartesian axis) and pressure

          total   stress  (Ry/bohr**3)                   (kbar)     P=       -0.69
  -0.00002156   0.00000000   0.00000000           -3.17        0.00        0.00
   0.00000000  -0.00002156   0.00000000            0.00       -3.17        0.00
   0.00000000   0.00000000   0.00002914            0.00        0.00        4.29

     Energy error            =      9.2E-05 Ry
     Gradient error          =      0.0E+00 Ry/Bohr
     Cell gradient error     =      4.3E+00 kbar

     number of scf cycles    =  10
     number of bfgs steps    =   8

     enthalpy           old  =    -154.7298064198 Ry
     enthalpy           new  =    -154.7298982815 Ry

     CASE: enthalpy          _new < enthalpy          _old

     new trust radius        =       0.0018913144 bohr
     new conv_thr            =       0.0000000010 Ry

     new unit-cell volume =    187.68408 a.u.^3 (    27.81191 Ang^3 )
     density =     15.55417 g/cm^3

CELL_PARAMETERS (angstrom)
   2.927564197   0.000000000   0.000000000
   0.000000000   2.927564197   0.000000000
   0.000000000   0.000000000   3.245024444

ATOMIC_POSITIONS (angstrom)
Cu               0.0000000000        0.0000000000        0.0000000000    0   0   0
Au               1.4637820986        1.4637820986        1.6225122218    0   0   0


     Message from routine punch:
     Nothing written, as per user request (disk_io='none')
     NEW-OLD atomic charge density approx. for the potential
     New effective cutoffs (rho, wfc):  538.33   67.39

     total cpu time spent up to now is      445.1 secs

     Self-consistent Calculation

     iteration #  1     ecut=    40.00 Ry     beta= 0.70
     Davidson diagonalization with overlap
     ethr =  1.00E-06,  avg # of iterations =  2.1

     Threshold (ethr) on eigenvalues was too large:
     Diagonalizing with lowered threshold

     Davidson diagonalization with overlap
     ethr =  2.70E-10,  avg # of iterations =  3.1

     total cpu time spent up to now is      458.1 secs

     total energy              =    -154.72990548 Ry
     estimated scf accuracy    <       0.00000005 Ry

     iteration #  2     ecut=    40.00 Ry     beta= 0.70
     Davidson diagonalization with overlap
     ethr =  2.50E-10,  avg # of iterations =  2.0

     total cpu time spent up to now is      463.4 secs

     total energy              =    -154.72990548 Ry
     estimated scf accuracy    <       0.00000004 Ry

     iteration #  3     ecut=    40.00 Ry     beta= 0.70
     Davidson diagonalization with overlap
     ethr =  1.76E-10,  avg # of iterations =  2.0

     total cpu time spent up to now is      468.4 secs

     total energy              =    -154.72990549 Ry
     estimated scf accuracy    <       0.00000002 Ry

     iteration #  4     ecut=    40.00 Ry     beta= 0.70
     Davidson diagonalization with overlap
     ethr =  8.14E-11,  avg # of iterations =  1.2

     total cpu time spent up to now is      473.0 secs

     End of self-consistent calculation

     Number of k-points >= 100: set verbosity='high' to print the bands.

     the Fermi energy is    15.6737 ev

!    total energy              =    -154.72990549 Ry
     estimated scf accuracy    <          1.3E-10 Ry
     smearing contrib. (-TS)   =       0.00012365 Ry
     internal energy E=F+TS    =    -154.73002915 Ry

     The total energy is F=E-TS. E is the sum of the following terms:
     one-electron contribution =      -4.01042684 Ry
     hartree contribution      =      27.63473378 Ry
     xc contribution           =     -24.54880518 Ry
     ewald contribution        =    -153.80553090 Ry

     convergence has been achieved in   4 iterations


     Computing stress (Cartesian axis) and pressure

          total   stress  (Ry/bohr**3)                   (kbar)     P=       -0.43
  -0.00001991   0.00000000   0.00000000           -2.93        0.00        0.00
   0.00000000  -0.00001991   0.00000000            0.00       -2.93        0.00
   0.00000000   0.00000000   0.00003110            0.00        0.00        4.58

     Energy error            =      7.2E-06 Ry
     Gradient error          =      0.0E+00 Ry/Bohr
     Cell gradient error     =      4.6E+00 kbar

     number of scf cycles    =  11
     number of bfgs steps    =   9

     enthalpy           old  =    -154.7298982815 Ry
     enthalpy           new  =    -154.7299054918 Ry

     CASE: enthalpy          _new < enthalpy          _old


     WARNING: bfgs curvature condition failed, Theta= 0.801
     new trust radius        =       0.0028347827 bohr
     new conv_thr            =       0.0000000010 Ry

     new unit-cell volume =    187.63906 a.u.^3 (    27.80524 Ang^3 )
     density =     15.55791 g/cm^3

CELL_PARAMETERS (angstrom)
   2.925699967   0.000000000   0.000000000
   0.000000000   2.925699967   0.000000000
   0.000000000   0.000000000   3.248381774

ATOMIC_POSITIONS (angstrom)
Cu               0.0000000000        0.0000000000        0.0000000000    0   0   0
Au               1.4628499836        1.4628499836        1.6241908868    0   0   0


     Message from routine punch:
     Nothing written, as per user request (disk_io='none')
     NEW-OLD atomic charge density approx. for the potential
     New effective cutoffs (rho, wfc):  538.95   67.48

     total cpu time spent up to now is      475.6 secs

     Self-consistent Calculation

     iteration #  1     ecut=    40.00 Ry     beta= 0.70
     Davidson diagonalization with overlap
     ethr =  1.00E-06,  avg # of iterations =  2.0

     Threshold (ethr) on eigenvalues was too large:
     Diagonalizing with lowered threshold

     Davidson diagonalization with overlap
     ethr =  5.60E-10,  avg # of iterations =  3.1

     total cpu time spent up to now is      488.1 secs

     total energy              =    -154.72991672 Ry
     estimated scf accuracy    <       0.00000011 Ry

     iteration #  2     ecut=    40.00 Ry     beta= 0.70
     Davidson diagonalization with overlap
     ethr =  5.16E-10,  avg # of iterations =  1.8

     total cpu time spent up to now is      493.2 secs

     total energy              =    -154.72991671 Ry
     estimated scf accuracy    <       0.00000006 Ry

     iteration #  3     ecut=    40.00 Ry     beta= 0.70
     Davidson diagonalization with overlap
     ethr =  2.59E-10,  avg # of iterations =  2.0

     total cpu time spent up to now is      499.0 secs

     total energy              =    -154.72991673 Ry
     estimated scf accuracy    <       0.00000005 Ry

     iteration #  4     ecut=    40.00 Ry     beta= 0.70
     Davidson diagonalization with overlap
     ethr =  2.09E-10,  avg # of iterations =  1.2

     total cpu time spent up to now is      503.6 secs

     End of self-consistent calculation

     Number of k-points >= 100: set verbosity='high' to print the bands.

     the Fermi energy is    15.6788 ev

!    total energy              =    -154.72991674 Ry
     estimated scf accuracy    <          1.5E-10 Ry
     smearing contrib. (-TS)   =       0.00012282 Ry
     internal energy E=F+TS    =    -154.73003956 Ry

     The total energy is F=E-TS. E is the sum of the following terms:
     one-electron contribution =      -3.99314750 Ry
     hartree contribution      =      27.62980298 Ry
     xc contribution           =     -24.54917791 Ry
     ewald contribution        =    -153.81751713 Ry

     convergence has been achieved in   4 iterations


     Computing stress (Cartesian axis) and pressure

          total   stress  (Ry/bohr**3)                   (kbar)     P=        0.07
  -0.00001670   0.00000000   0.00000000           -2.46        0.00        0.00
   0.00000000  -0.00001670   0.00000000            0.00       -2.46        0.00
   0.00000000   0.00000000   0.00003476            0.00        0.00        5.11

     Energy error            =      1.1E-05 Ry
     Gradient error          =      0.0E+00 Ry/Bohr
     Cell gradient error     =      5.1E+00 kbar

     number of scf cycles    =  12
     number of bfgs steps    =  10

     enthalpy           old  =    -154.7299054918 Ry
     enthalpy           new  =    -154.7299167371 Ry

     CASE: enthalpy          _new < enthalpy          _old

     new trust radius        =       0.0042472698 bohr
     new conv_thr            =       0.0000000010 Ry

     new unit-cell volume =    187.59224 a.u.^3 (    27.79830 Ang^3 )
     density =     15.56179 g/cm^3

CELL_PARAMETERS (angstrom)
   2.923069984   0.000000000   0.000000000
   0.000000000   2.923069984   0.000000000
   0.000000000   0.000000000   3.253417769

ATOMIC_POSITIONS (angstrom)
Cu               0.0000000000        0.0000000000        0.0000000000    0   0   0
Au               1.4615349921        1.4615349921        1.6267088844    0   0   0


     Message from routine punch:
     Nothing written, as per user request (disk_io='none')
     NEW-OLD atomic charge density approx. for the potential
     New effective cutoffs (rho, wfc):  539.88   67.60

     total cpu time spent up to now is      506.4 secs

     Self-consistent Calculation

     iteration #  1     ecut=    40.00 Ry     beta= 0.70
     Davidson diagonalization with overlap
     ethr =  1.00E-06,  avg # of iterations =  2.2

     Threshold (ethr) on eigenvalues was too large:
     Diagonalizing with lowered threshold

     Davidson diagonalization with overlap
     ethr =  1.19E-09,  avg # of iterations =  3.1

     total cpu time spent up to now is      519.2 secs

     total energy              =    -154.72993244 Ry
     estimated scf accuracy    <       0.00000024 Ry

     iteration #  2     ecut=    40.00 Ry     beta= 0.70
     Davidson diagonalization with overlap
     ethr =  1.10E-09,  avg # of iterations =  1.7

     total cpu time spent up to now is      523.9 secs

     total energy              =    -154.72993242 Ry
     estimated scf accuracy    <       0.00000011 Ry

     iteration #  3     ecut=    40.00 Ry     beta= 0.70
     Davidson diagonalization with overlap
     ethr =  5.10E-10,  avg # of iterations =  2.0

     total cpu time spent up to now is      529.4 secs

     total energy              =    -154.72993245 Ry
     estimated scf accuracy    <       0.00000010 Ry

     iteration #  4     ecut=    40.00 Ry     beta= 0.70
     Davidson diagonalization with overlap
     ethr =  4.59E-10,  avg # of iterations =  1.2

     total cpu time spent up to now is      534.1 secs

     End of self-consistent calculation

     Number of k-points >= 100: set verbosity='high' to print the bands.

     the Fermi energy is    15.6839 ev

!    total energy              =    -154.72993247 Ry
     estimated scf accuracy    <          3.6E-10 Ry
     smearing contrib. (-TS)   =       0.00012121 Ry
     internal energy E=F+TS    =    -154.73005368 Ry

     The total energy is F=E-TS. E is the sum of the following terms:
     one-electron contribution =      -3.97538269 Ry
     hartree contribution      =      27.62475257 Ry
     xc contribution           =     -24.54956467 Ry
     ewald contribution        =    -153.82985890 Ry

     convergence has been achieved in   4 iterations


     Computing stress (Cartesian axis) and pressure

          total   stress  (Ry/bohr**3)                   (kbar)     P=        0.53
  -0.00001374   0.00000000   0.00000000           -2.02        0.00        0.00
   0.00000000  -0.00001374   0.00000000            0.00       -2.02        0.00
   0.00000000   0.00000000   0.00003836            0.00        0.00        5.64

     Energy error            =      1.6E-05 Ry
     Gradient error          =      0.0E+00 Ry/Bohr
     Cell gradient error     =      5.6E+00 kbar

     number of scf cycles    =  13
     number of bfgs steps    =  11

     enthalpy           old  =    -154.7299167371 Ry
     enthalpy           new  =    -154.7299324683 Ry

     CASE: enthalpy          _new < enthalpy          _old


     WARNING: bfgs curvature condition failed, Theta= 0.431
     new trust radius        =       0.0063602494 bohr
     new conv_thr            =       0.0000000010 Ry

     new unit-cell volume =    187.50385 a.u.^3 (    27.78520 Ang^3 )
     density =     15.56912 g/cm^3

CELL_PARAMETERS (angstrom)
   2.918994505   0.000000000   0.000000000
   0.000000000   2.918994505   0.000000000
   0.000000000   0.000000000   3.260971761

ATOMIC_POSITIONS (angstrom)
Cu               0.0000000000        0.0000000000        0.0000000000    0   0   0
Au               1.4594972527        1.4594972527        1.6304858807    0   0   0


     Message from routine punch:
     Nothing written, as per user request (disk_io='none')
     NEW-OLD atomic charge density approx. for the potential
     New effective cutoffs (rho, wfc):  541.32   67.79

     total cpu time spent up to now is      536.8 secs

     Self-consistent Calculation

     iteration #  1     ecut=    40.00 Ry     beta= 0.70
     Davidson diagonalization with overlap
     ethr =  1.00E-06,  avg # of iterations =  2.7

     Threshold (ethr) on eigenvalues was too large:
     Diagonalizing with lowered threshold

     Davidson diagonalization with overlap
     ethr =  2.81E-09,  avg # of iterations =  2.8

     total cpu time spent up to now is      549.8 secs

     total energy              =    -154.72995308 Ry
     estimated scf accuracy    <       0.00000057 Ry

     iteration #  2     ecut=    40.00 Ry     beta= 0.70
     Davidson diagonalization with overlap
     ethr =  2.61E-09,  avg # of iterations =  1.9

     total cpu time spent up to now is      556.9 secs

     total energy              =    -154.72995304 Ry
     estimated scf accuracy    <       0.00000030 Ry

     iteration #  3     ecut=    40.00 Ry     beta= 0.70
     Davidson diagonalization with overlap
     ethr =  1.38E-09,  avg # of iterations =  2.0

     total cpu time spent up to now is      564.1 secs

     total energy              =    -154.72995312 Ry
     estimated scf accuracy    <       0.00000023 Ry

     iteration #  4     ecut=    40.00 Ry     beta= 0.70
     Davidson diagonalization with overlap
     ethr =  1.03E-09,  avg # of iterations =  1.2

     total cpu time spent up to now is      568.9 secs

     total energy              =    -154.72995316 Ry
     estimated scf accuracy    <          1.1E-09 Ry

     iteration #  5     ecut=    40.00 Ry     beta= 0.70
     Davidson diagonalization with overlap
     ethr =  4.94E-12,  avg # of iterations =  2.1

     total cpu time spent up to now is      574.6 secs

     End of self-consistent calculation

     Number of k-points >= 100: set verbosity='high' to print the bands.

     the Fermi energy is    15.6937 ev

!    total energy              =    -154.72995316 Ry
     estimated scf accuracy    <          1.7E-10 Ry
     smearing contrib. (-TS)   =       0.00011810 Ry
     internal energy E=F+TS    =    -154.73007126 Ry

     The total energy is F=E-TS. E is the sum of the following terms:
     one-electron contribution =      -3.94162277 Ry
     hartree contribution      =      27.61522639 Ry
     xc contribution           =     -24.55032302 Ry
     ewald contribution        =    -153.85335186 Ry

     convergence has been achieved in   5 iterations


     Computing stress (Cartesian axis) and pressure

          total   stress  (Ry/bohr**3)                   (kbar)     P=        1.74
  -0.00000582   0.00000000   0.00000000           -0.86        0.00        0.00
   0.00000000  -0.00000582   0.00000000            0.00       -0.86        0.00
   0.00000000   0.00000000   0.00004720            0.00        0.00        6.94

     Energy error            =      2.1E-05 Ry
     Gradient error          =      0.0E+00 Ry/Bohr
     Cell gradient error     =      6.9E+00 kbar

     number of scf cycles    =  14
     number of bfgs steps    =  12

     enthalpy           old  =    -154.7299324683 Ry
     enthalpy           new  =    -154.7299531599 Ry

     CASE: enthalpy          _new < enthalpy          _old

     new trust radius        =       0.0095160315 bohr
     new conv_thr            =       0.0000000010 Ry

     new unit-cell volume =    187.38951 a.u.^3 (    27.76826 Ang^3 )
     density =     15.57862 g/cm^3

CELL_PARAMETERS (angstrom)
   2.913047713   0.000000000   0.000000000
   0.000000000   2.913047713   0.000000000
   0.000000000   0.000000000   3.272302750

ATOMIC_POSITIONS (angstrom)
Cu               0.0000000000        0.0000000000        0.0000000000    0   0   0
Au               1.4565238566        1.4565238566        1.6361513751    0   0   0


     Message from routine punch:
     Nothing written, as per user request (disk_io='none')
     NEW-OLD atomic charge density approx. for the potential
     New effective cutoffs (rho, wfc):  543.43   68.06

     total cpu time spent up to now is      577.1 secs

     Self-consistent Calculation

     iteration #  1     ecut=    40.00 Ry     beta= 0.70
     Davidson diagonalization with overlap
     ethr =  1.00E-06,  avg # of iterations =  3.4

     Threshold (ethr) on eigenvalues was too large:
     Diagonalizing with lowered threshold

     Davidson diagonalization with overlap
     ethr =  6.19E-09,  avg # of iterations =  2.2

     total cpu time spent up to now is      589.6 secs

     total energy              =    -154.72998738 Ry
     estimated scf accuracy    <       0.00000131 Ry

     iteration #  2     ecut=    40.00 Ry     beta= 0.70
     Davidson diagonalization with overlap
     ethr =  5.95E-09,  avg # of iterations =  2.0

     total cpu time spent up to now is      594.6 secs

     total energy              =    -154.72998729 Ry
     estimated scf accuracy    <       0.00000073 Ry

     iteration #  3     ecut=    40.00 Ry     beta= 0.70
     Davidson diagonalization with overlap
     ethr =  3.32E-09,  avg # of iterations =  2.0

     total cpu time spent up to now is      600.0 secs

     total energy              =    -154.72998749 Ry
     estimated scf accuracy    <       0.00000049 Ry

     iteration #  4     ecut=    40.00 Ry     beta= 0.70
     Davidson diagonalization with overlap
     ethr =  2.25E-09,  avg # of iterations =  1.2

     total cpu time spent up to now is      604.7 secs

     total energy              =    -154.72998757 Ry
     estimated scf accuracy    <          4.4E-09 Ry

     iteration #  5     ecut=    40.00 Ry     beta= 0.70
     Davidson diagonalization with overlap
     ethr =  2.01E-11,  avg # of iterations =  2.0

     total cpu time spent up to now is      611.5 secs

     End of self-consistent calculation

     Number of k-points >= 100: set verbosity='high' to print the bands.

     the Fermi energy is    15.7061 ev

!    total energy              =    -154.72998757 Ry
     estimated scf accuracy    <          3.3E-10 Ry
     smearing contrib. (-TS)   =       0.00011322 Ry
     internal energy E=F+TS    =    -154.73010079 Ry

     The total energy is F=E-TS. E is the sum of the following terms:
     one-electron contribution =      -3.89794427 Ry
     hartree contribution      =      27.60278836 Ry
     xc contribution           =     -24.55126969 Ry
     ewald contribution        =    -153.88367518 Ry

     convergence has been achieved in   5 iterations


     Computing stress (Cartesian axis) and pressure

          total   stress  (Ry/bohr**3)                   (kbar)     P=        3.05
   0.00000262   0.00000000   0.00000000            0.39        0.00        0.00
   0.00000000   0.00000262   0.00000000            0.00        0.39        0.00
   0.00000000   0.00000000   0.00005693            0.00        0.00        8.38

     Energy error            =      3.4E-05 Ry
     Gradient error          =      0.0E+00 Ry/Bohr
     Cell gradient error     =      8.4E+00 kbar

     number of scf cycles    =  15
     number of bfgs steps    =  13

     enthalpy           old  =    -154.7299531599 Ry
     enthalpy           new  =    -154.7299875716 Ry

     CASE: enthalpy          _new < enthalpy          _old

     new trust radius        =       0.0142202827 bohr
     new conv_thr            =       0.0000000010 Ry

     new unit-cell volume =    187.22642 a.u.^3 (    27.74409 Ang^3 )
     density =     15.59219 g/cm^3

CELL_PARAMETERS (angstrom)
   2.904247140   0.000000000   0.000000000
   0.000000000   2.904247140   0.000000000
   0.000000000   0.000000000   3.289299234

ATOMIC_POSITIONS (angstrom)
Cu               0.0000000000        0.0000000000        0.0000000000    0   0   0
Au               1.4521235699        1.4521235699        1.6446496168    0   0   0


     Message from routine punch:
     Nothing written, as per user request (disk_io='none')
     NEW-OLD atomic charge density approx. for the potential
     New effective cutoffs (rho, wfc):  546.57   68.48

     total cpu time spent up to now is      614.4 secs

     Self-consistent Calculation

     iteration #  1     ecut=    40.00 Ry     beta= 0.70
     Davidson diagonalization with overlap
     ethr =  1.00E-06,  avg # of iterations =  3.8

     Threshold (ethr) on eigenvalues was too large:
     Diagonalizing with lowered threshold

     Davidson diagonalization with overlap
     ethr =  1.39E-08,  avg # of iterations =  2.1

     total cpu time spent up to now is      628.6 secs

     total energy              =    -154.73003915 Ry
     estimated scf accuracy    <       0.00000302 Ry

     iteration #  2     ecut=    40.00 Ry     beta= 0.70
     Davidson diagonalization with overlap
     ethr =  1.37E-08,  avg # of iterations =  2.0

     total cpu time spent up to now is      635.1 secs

     total energy              =    -154.73003893 Ry
     estimated scf accuracy    <       0.00000190 Ry

     iteration #  3     ecut=    40.00 Ry     beta= 0.70
     Davidson diagonalization with overlap
     ethr =  8.65E-09,  avg # of iterations =  2.0

     total cpu time spent up to now is      642.7 secs

     total energy              =    -154.73003945 Ry
     estimated scf accuracy    <       0.00000107 Ry

     iteration #  4     ecut=    40.00 Ry     beta= 0.70
     Davidson diagonalization with overlap
     ethr =  4.88E-09,  avg # of iterations =  1.2

     total cpu time spent up to now is      648.4 secs

     total energy              =    -154.73003962 Ry
     estimated scf accuracy    <       0.00000001 Ry

     iteration #  5     ecut=    40.00 Ry     beta= 0.70
     Davidson diagonalization with overlap
     ethr =  5.37E-11,  avg # of iterations =  2.0

     total cpu time spent up to now is      655.1 secs

     End of self-consistent calculation

     Number of k-points >= 100: set verbosity='high' to print the bands.

     the Fermi energy is    15.7241 ev

!    total energy              =    -154.73003963 Ry
     estimated scf accuracy    <          6.9E-10 Ry
     smearing contrib. (-TS)   =       0.00011012 Ry
     internal energy E=F+TS    =    -154.73014975 Ry

     The total energy is F=E-TS. E is the sum of the following terms:
     one-electron contribution =      -3.83549921 Ry
     hartree contribution      =      27.58496207 Ry
     xc contribution           =     -24.55261229 Ry
     ewald contribution        =    -153.92700031 Ry

     convergence has been achieved in   5 iterations


     Computing stress (Cartesian axis) and pressure

          total   stress  (Ry/bohr**3)                   (kbar)     P=        4.90
   0.00001468   0.00000000   0.00000000            2.16        0.00        0.00
   0.00000000   0.00001468   0.00000000            0.00        2.16        0.00
   0.00000000   0.00000000   0.00007050            0.00        0.00       10.37

     Energy error            =      5.2E-05 Ry
     Gradient error          =      0.0E+00 Ry/Bohr
     Cell gradient error     =      1.0E+01 kbar

     number of scf cycles    =  16
     number of bfgs steps    =  14

     enthalpy           old  =    -154.7299875716 Ry
     enthalpy           new  =    -154.7300396281 Ry

     CASE: enthalpy          _new < enthalpy          _old

     new trust radius        =       0.0212109689 bohr
     new conv_thr            =       0.0000000010 Ry

     new unit-cell volume =    186.98508 a.u.^3 (    27.70833 Ang^3 )
     density =     15.61232 g/cm^3

CELL_PARAMETERS (angstrom)
   2.891191855   0.000000000   0.000000000
   0.000000000   2.891191855   0.000000000
   0.000000000   0.000000000   3.314793959

ATOMIC_POSITIONS (angstrom)
Cu               0.0000000000        0.0000000000        0.0000000000    0   0   0
Au               1.4455959275        1.4455959275        1.6573969794    0   0   0


     Message from routine punch:
     Nothing written, as per user request (disk_io='none')
     NEW-OLD atomic charge density approx. for the potential
     New effective cutoffs (rho, wfc):  551.30   69.10

     total cpu time spent up to now is      657.8 secs

     Self-consistent Calculation

     iteration #  1     ecut=    40.00 Ry     beta= 0.70
     Davidson diagonalization with overlap
     ethr =  1.00E-06,  avg # of iterations =  4.4

     Threshold (ethr) on eigenvalues was too large:
     Diagonalizing with lowered threshold

     Davidson diagonalization with overlap
     ethr =  3.20E-08,  avg # of iterations =  1.8

     total cpu time spent up to now is      671.4 secs

     total energy              =    -154.73011353 Ry
     estimated scf accuracy    <       0.00000697 Ry

     iteration #  2     ecut=    40.00 Ry     beta= 0.70
     Davidson diagonalization with overlap
     ethr =  3.17E-08,  avg # of iterations =  2.0

     total cpu time spent up to now is      677.0 secs

     total energy              =    -154.73011288 Ry
     estimated scf accuracy    <       0.00000594 Ry

     iteration #  3     ecut=    40.00 Ry     beta= 0.70
     Davidson diagonalization with overlap
     ethr =  2.70E-08,  avg # of iterations =  2.0

     total cpu time spent up to now is      682.5 secs

     total energy              =    -154.73011449 Ry
     estimated scf accuracy    <       0.00000204 Ry

     iteration #  4     ecut=    40.00 Ry     beta= 0.70
     Davidson diagonalization with overlap
     ethr =  9.27E-09,  avg # of iterations =  1.2

     total cpu time spent up to now is      687.8 secs

     total energy              =    -154.73011481 Ry
     estimated scf accuracy    <       0.00000003 Ry

     iteration #  5     ecut=    40.00 Ry     beta= 0.70
     Davidson diagonalization with overlap
     ethr =  1.29E-10,  avg # of iterations =  2.0

     total cpu time spent up to now is      693.6 secs

     total energy              =    -154.73011482 Ry
     estimated scf accuracy    <          1.3E-09 Ry

     iteration #  6     ecut=    40.00 Ry     beta= 0.70
     Davidson diagonalization with overlap
     ethr =  6.11E-12,  avg # of iterations =  1.9

     total cpu time spent up to now is      698.7 secs

     End of self-consistent calculation

     Number of k-points >= 100: set verbosity='high' to print the bands.

     the Fermi energy is    15.7536 ev

!    total energy              =    -154.73011482 Ry
     estimated scf accuracy    <          3.3E-11 Ry
     smearing contrib. (-TS)   =       0.00011833 Ry
     internal energy E=F+TS    =    -154.73023315 Ry

     The total energy is F=E-TS. E is the sum of the following terms:
     one-electron contribution =      -3.74256118 Ry
     hartree contribution      =      27.55834348 Ry
     xc contribution           =     -24.55459057 Ry
     ewald contribution        =    -153.99142488 Ry

     convergence has been achieved in   6 iterations


     Computing stress (Cartesian axis) and pressure

          total   stress  (Ry/bohr**3)                   (kbar)     P=        7.31
   0.00003177   0.00000000   0.00000000            4.67        0.00        0.00
   0.00000000   0.00003177   0.00000000            0.00        4.67        0.00
   0.00000000   0.00000000   0.00008552            0.00        0.00       12.58

     Energy error            =      7.5E-05 Ry
     Gradient error          =      0.0E+00 Ry/Bohr
     Cell gradient error     =      1.3E+01 kbar

     number of scf cycles    =  17
     number of bfgs steps    =  15

     enthalpy           old  =    -154.7300396281 Ry
     enthalpy           new  =    -154.7301148210 Ry

     CASE: enthalpy          _new < enthalpy          _old

     new trust radius        =       0.0315513925 bohr
     new conv_thr            =       0.0000000010 Ry

     new unit-cell volume =    186.61969 a.u.^3 (    27.65418 Ang^3 )
     density =     15.64289 g/cm^3

CELL_PARAMETERS (angstrom)
   2.871847120   0.000000000   0.000000000
   0.000000000   2.871847120   0.000000000
   0.000000000   0.000000000   3.353036046

ATOMIC_POSITIONS (angstrom)
Cu               0.0000000000        0.0000000000        0.0000000000    0   0   0
Au               1.4359235599        1.4359235599        1.6765180232    0   0   0


     Message from routine punch:
     Nothing written, as per user request (disk_io='none')
     NEW-OLD atomic charge density approx. for the potential
     New effective cutoffs (rho, wfc):  558.60   70.03

     total cpu time spent up to now is      701.5 secs

     Self-consistent Calculation

     iteration #  1     ecut=    40.00 Ry     beta= 0.70
     Davidson diagonalization with overlap
     ethr =  1.00E-06,  avg # of iterations =  5.2

     Threshold (ethr) on eigenvalues was too large:
     Diagonalizing with lowered threshold

     Davidson diagonalization with overlap
     ethr =  7.44E-08,  avg # of iterations =  1.3

     total cpu time spent up to now is      715.9 secs

     total energy              =    -154.73019147 Ry
     estimated scf accuracy    <       0.00001624 Ry

     iteration #  2     ecut=    40.00 Ry     beta= 0.70
     Davidson diagonalization with overlap
     ethr =  7.38E-08,  avg # of iterations =  2.0

     total cpu time spent up to now is      721.7 secs

     total energy              =    -154.73018956 Ry
     estimated scf accuracy    <       0.00002223 Ry

     iteration #  3     ecut=    40.00 Ry     beta= 0.70
     Davidson diagonalization with overlap
     ethr =  7.38E-08,  avg # of iterations =  2.0

     total cpu time spent up to now is      727.1 secs

     total energy              =    -154.73019504 Ry
     estimated scf accuracy    <       0.00000293 Ry

     iteration #  4     ecut=    40.00 Ry     beta= 0.70
     Davidson diagonalization with overlap
     ethr =  1.33E-08,  avg # of iterations =  1.1

     total cpu time spent up to now is      732.8 secs

     total energy              =    -154.73019548 Ry
     estimated scf accuracy    <       0.00000005 Ry

     iteration #  5     ecut=    40.00 Ry     beta= 0.70
     Davidson diagonalization with overlap
     ethr =  2.26E-10,  avg # of iterations =  2.0

     total cpu time spent up to now is      739.0 secs

     total energy              =    -154.73019549 Ry
     estimated scf accuracy    <          2.6E-09 Ry

     iteration #  6     ecut=    40.00 Ry     beta= 0.70
     Davidson diagonalization with overlap
     ethr =  1.17E-11,  avg # of iterations =  2.0

     total cpu time spent up to now is      744.2 secs

     End of self-consistent calculation

     Number of k-points >= 100: set verbosity='high' to print the bands.

     the Fermi energy is    15.8082 ev

!    total energy              =    -154.73019549 Ry
     estimated scf accuracy    <          6.9E-11 Ry
     smearing contrib. (-TS)   =       0.00009649 Ry
     internal energy E=F+TS    =    -154.73029198 Ry

     The total energy is F=E-TS. E is the sum of the following terms:
     one-electron contribution =      -3.60112801 Ry
     hartree contribution      =      27.51848368 Ry
     xc contribution           =     -24.55780998 Ry
     ewald contribution        =    -154.08983767 Ry

     convergence has been achieved in   6 iterations


     Computing stress (Cartesian axis) and pressure

          total   stress  (Ry/bohr**3)                   (kbar)     P=       11.33
   0.00006561   0.00000000   0.00000000            9.65        0.00        0.00
   0.00000000   0.00006561   0.00000000            0.00        9.65        0.00
   0.00000000   0.00000000   0.00009991            0.00        0.00       14.70

     Energy error            =      8.1E-05 Ry
     Gradient error          =      0.0E+00 Ry/Bohr
     Cell gradient error     =      1.5E+01 kbar

     number of scf cycles    =  18
     number of bfgs steps    =  16

     enthalpy           old  =    -154.7301148210 Ry
     enthalpy           new  =    -154.7301954919 Ry

     CASE: enthalpy          _new < enthalpy          _old

     new trust radius        =       0.0276627592 bohr
     new conv_thr            =       0.0000000010 Ry

     new unit-cell volume =    186.35580 a.u.^3 (    27.61508 Ang^3 )
     density =     15.66504 g/cm^3

CELL_PARAMETERS (angstrom)
   2.855397214   0.000000000   0.000000000
   0.000000000   2.855397214   0.000000000
   0.000000000   0.000000000   3.386984891

ATOMIC_POSITIONS (angstrom)
Cu               0.0000000000        0.0000000000        0.0000000000    0   0   0
Au               1.4276986071        1.4276986071        1.6934924453    0   0   0


     Message from routine punch:
     Nothing written, as per user request (disk_io='none')
     NEW-OLD atomic charge density approx. for the potential
     New effective cutoffs (rho, wfc):  565.02   70.84

     total cpu time spent up to now is      747.1 secs

     Self-consistent Calculation

     iteration #  1     ecut=    40.00 Ry     beta= 0.70
[...]
     one-electron contribution =      -4.56695385 Ry
     hartree contribution      =      27.80683385 Ry
     xc contribution           =     -24.54156684 Ry
     ewald contribution        =    -153.42906364 Ry

     convergence has been achieved in   5 iterations


     Computing stress (Cartesian axis) and pressure

          total   stress  (Ry/bohr**3)                   (kbar)     P=      -10.59
  -0.00006896   0.00000000   0.00000000          -10.14        0.00        0.00
   0.00000000  -0.00006896   0.00000000            0.00      -10.14        0.00
   0.00000000   0.00000000  -0.00007807            0.00        0.00      -11.48

     Energy error            =      6.2E-05 Ry
     Gradient error          =      0.0E+00 Ry/Bohr
     Cell gradient error     =      1.1E+01 kbar

     number of scf cycles    =  30
     number of bfgs steps    =  28

     enthalpy           old  =    -154.7306021378 Ry
     enthalpy           new  =    -154.7306639763 Ry

     CASE: enthalpy          _new < enthalpy          _old

     new trust radius        =       0.0079348453 bohr
     new conv_thr            =       0.0000000010 Ry

     new unit-cell volume =    188.49492 a.u.^3 (    27.93207 Ang^3 )
     density =     15.48726 g/cm^3

CELL_PARAMETERS (angstrom)
   2.773161723   0.000000000   0.000000000
   0.000000000   2.773161723   0.000000000
   0.000000000   0.000000000   3.632057000

ATOMIC_POSITIONS (angstrom)
Cu               0.0000000000        0.0000000000        0.0000000000    0   0   0
Au               1.3865808617        1.3865808617        1.8160284998    0   0   0


     Message from routine punch:
     Nothing written, as per user request (disk_io='none')
     NEW-OLD atomic charge density approx. for the potential
     New effective cutoffs (rho, wfc):  598.84   75.10

     total cpu time spent up to now is     1251.1 secs

     Self-consistent Calculation

     iteration #  1     ecut=    40.00 Ry     beta= 0.70
     Davidson diagonalization with overlap
     ethr =  1.00E-06,  avg # of iterations =  3.1

     Threshold (ethr) on eigenvalues was too large:
     Diagonalizing with lowered threshold

     Davidson diagonalization with overlap
     ethr =  1.37E-09,  avg # of iterations =  2.9

     total cpu time spent up to now is     1264.6 secs

     total energy              =    -154.73069660 Ry
     estimated scf accuracy    <       0.00000033 Ry

     iteration #  2     ecut=    40.00 Ry     beta= 0.70
     Davidson diagonalization with overlap
     ethr =  1.52E-09,  avg # of iterations =  1.6

     total cpu time spent up to now is     1270.3 secs

     total energy              =    -154.73069661 Ry
     estimated scf accuracy    <       0.00000005 Ry

     iteration #  3     ecut=    40.00 Ry     beta= 0.70
     Davidson diagonalization with overlap
     ethr =  2.47E-10,  avg # of iterations =  2.0

     total cpu time spent up to now is     1276.4 secs

     total energy              =    -154.73069661 Ry
     estimated scf accuracy    <       0.00000007 Ry

     iteration #  4     ecut=    40.00 Ry     beta= 0.70
     Davidson diagonalization with overlap
     ethr =  2.47E-10,  avg # of iterations =  2.0

     total cpu time spent up to now is     1281.9 secs

     total energy              =    -154.73069663 Ry
     estimated scf accuracy    <       0.00000001 Ry

     iteration #  5     ecut=    40.00 Ry     beta= 0.70
     Davidson diagonalization with overlap
     ethr =  5.92E-11,  avg # of iterations =  1.6

     total cpu time spent up to now is     1287.8 secs

     End of self-consistent calculation

     Number of k-points >= 100: set verbosity='high' to print the bands.

     the Fermi energy is    15.6865 ev

!    total energy              =    -154.73069663 Ry
     estimated scf accuracy    <          2.9E-11 Ry
     smearing contrib. (-TS)   =       0.00006807 Ry
     internal energy E=F+TS    =    -154.73076470 Ry

     The total energy is F=E-TS. E is the sum of the following terms:
     one-electron contribution =      -4.34338780 Ry
     hartree contribution      =      27.74104882 Ry
     xc contribution           =     -24.54579714 Ry
     ewald contribution        =    -153.58262859 Ry

     convergence has been achieved in   5 iterations


     Computing stress (Cartesian axis) and pressure

          total   stress  (Ry/bohr**3)                   (kbar)     P=       -5.47
  -0.00003675   0.00000000   0.00000000           -5.41        0.00        0.00
   0.00000000  -0.00003675   0.00000000            0.00       -5.41        0.00
   0.00000000   0.00000000  -0.00003804            0.00        0.00       -5.60

     Energy error            =      3.3E-05 Ry
     Gradient error          =      0.0E+00 Ry/Bohr
     Cell gradient error     =      5.6E+00 kbar

     number of scf cycles    =  31
     number of bfgs steps    =  29

     enthalpy           old  =    -154.7306639763 Ry
     enthalpy           new  =    -154.7306966282 Ry

     CASE: enthalpy          _new < enthalpy          _old

     new trust radius        =       0.0038552763 bohr
     new conv_thr            =       0.0000000010 Ry

     new unit-cell volume =    187.89219 a.u.^3 (    27.84275 Ang^3 )
     density =     15.53695 g/cm^3

CELL_PARAMETERS (angstrom)
   2.770670180   0.000000000   0.000000000
   0.000000000   2.770670180   0.000000000
   0.000000000   0.000000000   3.626957491

ATOMIC_POSITIONS (angstrom)
Cu               0.0000000000        0.0000000000        0.0000000000    0   0   0
Au               1.3853350901        1.3853350901        1.8134787454    0   0   0


     Message from routine punch:
     Nothing written, as per user request (disk_io='none')
     NEW-OLD atomic charge density approx. for the potential
     New effective cutoffs (rho, wfc):  599.92   75.24

     total cpu time spent up to now is     1291.0 secs

     Self-consistent Calculation

     iteration #  1     ecut=    40.00 Ry     beta= 0.70
     Davidson diagonalization with overlap
     ethr =  1.00E-06,  avg # of iterations =  3.0

     Threshold (ethr) on eigenvalues was too large:
     Diagonalizing with lowered threshold

     Davidson diagonalization with overlap
     ethr =  1.73E-09,  avg # of iterations =  2.1

     total cpu time spent up to now is     1304.2 secs

     total energy              =    -154.73070515 Ry
     estimated scf accuracy    <       0.00000040 Ry

     iteration #  2     ecut=    40.00 Ry     beta= 0.70
     Davidson diagonalization with overlap
     ethr =  1.82E-09,  avg # of iterations =  2.0

     total cpu time spent up to now is     1310.4 secs

     total energy              =    -154.73070512 Ry
     estimated scf accuracy    <       0.00000118 Ry

     iteration #  3     ecut=    40.00 Ry     beta= 0.70
     Davidson diagonalization with overlap
     ethr =  1.82E-09,  avg # of iterations =  2.0

     total cpu time spent up to now is     1316.0 secs

     total energy              =    -154.73070534 Ry
     estimated scf accuracy    <       0.00000002 Ry

     iteration #  4     ecut=    40.00 Ry     beta= 0.70
     Davidson diagonalization with overlap
     ethr =  1.07E-10,  avg # of iterations =  2.0

     total cpu time spent up to now is     1321.2 secs

     total energy              =    -154.73070534 Ry
     estimated scf accuracy    <          1.7E-09 Ry

     iteration #  5     ecut=    40.00 Ry     beta= 0.70
     Davidson diagonalization with overlap
     ethr =  7.69E-12,  avg # of iterations =  1.8

     total cpu time spent up to now is     1326.4 secs

     End of self-consistent calculation

     Number of k-points >= 100: set verbosity='high' to print the bands.

     the Fermi energy is    15.7578 ev

!    total energy              =    -154.73070534 Ry
     estimated scf accuracy    <          2.0E-11 Ry
     smearing contrib. (-TS)   =       0.00006727 Ry
     internal energy E=F+TS    =    -154.73077261 Ry

     The total energy is F=E-TS. E is the sum of the following terms:
     one-electron contribution =      -4.10475951 Ry
     hartree contribution      =      27.67101305 Ry
     xc contribution           =     -24.55042310 Ry
     ewald contribution        =    -153.74660305 Ry

     convergence has been achieved in   5 iterations


     Computing stress (Cartesian axis) and pressure

          total   stress  (Ry/bohr**3)                   (kbar)     P=        0.31
   0.00000248   0.00000000   0.00000000            0.37        0.00        0.00
   0.00000000   0.00000248   0.00000000            0.00        0.37        0.00
   0.00000000   0.00000000   0.00000143            0.00        0.00        0.21

     Energy error            =      8.7E-06 Ry
     Gradient error          =      0.0E+00 Ry/Bohr
     Cell gradient error     =      3.7E-01 kbar

     bfgs converged in  32 scf cycles and  30 bfgs steps
     (criteria: energy <  1.0E-04 Ry, force <  1.0E-03 Ry/Bohr, cell <  5.0E-01 kbar)

     End of BFGS Geometry Optimization

     Final enthalpy           =    -154.7307053428 Ry

     File /home/bond/Work/Lab4/Problem3/CuAu_nk_14/pwscf.bfgs deleted, as requested
Begin final coordinates
     new unit-cell volume =    187.89219 a.u.^3 (    27.84275 Ang^3 )
     density =     15.53695 g/cm^3

CELL_PARAMETERS (angstrom)
   2.770670180   0.000000000   0.000000000
   0.000000000   2.770670180   0.000000000
   0.000000000   0.000000000   3.626957491

ATOMIC_POSITIONS (angstrom)
Cu               0.0000000000        0.0000000000        0.0000000000    0   0   0
Au               1.3853350901        1.3853350901        1.8134787454    0   0   0
End final coordinates


     Message from routine punch:
     Nothing written, as per user request (disk_io='none')

     Final scf calculation at the relaxed structure.
     The G-vectors are recalculated for the final unit cell
     Results may differ from those at the preceding step.

     Parallelization info
     --------------------
     sticks:   dense  smooth     PW     G-vecs:    dense   smooth      PW
     Min         348     174     56                 9078     3218     587
     Max         349     175     57                 9081     3221     588
     Sum         697     349    113                18159     6439    1175

     Using Slab Decomposition



     bravais-lattice index     =            0
     lattice parameter (alat)  =       7.1810  a.u.
     unit-cell volume          =     187.8922 (a.u.)^3
     number of atoms/cell      =            2
     number of atomic types    =            2
     number of electrons       =        22.00
     number of Kohn-Sham states=           15
     kinetic-energy cutoff     =      40.0000  Ry
     charge density cutoff     =     320.0000  Ry
     scf convergence threshold =      1.0E-09
     mixing beta               =       0.7000
     number of iterations used =            8  plain     mixing
     press convergence thresh. =      5.0E-01
     Exchange-correlation=  SLA  PZ   NOGX NOGC
                           (   1   1   0   0   0   0   0)

     celldm(1)=   7.180959  celldm(2)=   0.000000  celldm(3)=   0.000000
     celldm(4)=   0.000000  celldm(5)=   0.000000  celldm(6)=   0.000000

     crystal axes: (cart. coord. in units of alat)
               a(1) = (   0.729124   0.000000   0.000000 )  
               a(2) = (   0.000000   0.729124   0.000000 )  
               a(3) = (   0.000000   0.000000   0.954462 )  

     reciprocal axes: (cart. coord. in units 2 pi/alat)
               b(1) = (  1.371509  0.000000  0.000000 )  
               b(2) = (  0.000000  1.371509  0.000000 )  
               b(3) = (  0.000000  0.000000  1.047710 )  


     PseudoPot. # 1 for Au read from file:
     /home/bond/Software/QE/qe-7.4.1/pseudo/Au.pz-d-rrkjus.UPF
     MD5 check sum: 424ffd4ac9c90487cbadcd287136c95b
     Pseudo is Ultrasoft, Zval = 11.0
     Generated by new atomic code, or converted to UPF format
     Using radial grid of 1279 points,  3 beta functions with: 
                l(1) =   2
                l(2) =   2
                l(3) =   1
     Q(r) pseudized with 0 coefficients 


     PseudoPot. # 2 for Cu read from file:
     /home/bond/Software/QE/qe-7.4.1/pseudo/Cu.pz-d-rrkjus.UPF
     MD5 check sum: fd38ae683e239c95a66f426e1f8e5fc7
     Pseudo is Ultrasoft, Zval = 11.0
     Generated by new atomic code, or converted to UPF format
     Using radial grid of  899 points,  3 beta functions with: 
                l(1) =   2
                l(2) =   2
                l(3) =   1
     Q(r) pseudized with 0 coefficients 


     atomic species   valence    mass     pseudopotential
     Au               11.00   196.96657     Au( 1.00)
     Cu               11.00    63.54600     Cu( 1.00)

     16 Sym. Ops., with inversion, found



   Cartesian axes

     site n.     atom                  positions (alat units)
         1        Cu     tau(   1) = (   0.0000000   0.0000000   0.0000000  )
         2        Au     tau(   2) = (   0.3645619   0.3645619   0.4772312  )

     number of k points=   196  Methfessel-Paxton smearing, width (Ry)=  0.0200

     Number of k-points >= 100: set verbosity='high' to print them.

     Dense  grid:    18159 G-vectors     FFT dimensions: (  30,  30,  40)

     Smooth grid:     6439 G-vectors     FFT dimensions: (  24,  24,  27)

     Estimated max dynamical RAM per process >      42.19 MB

     Estimated total dynamical RAM >      84.39 MB

     Initial potential from superposition of free atoms

     starting charge      21.9996, renormalised to      22.0000
     Starting wfcs are   15 randomized atomic wfcs

     total cpu time spent up to now is     1331.0 secs

     Self-consistent Calculation

     iteration #  1     ecut=    40.00 Ry     beta= 0.70
     Davidson diagonalization with overlap
     c_bands:  1 eigenvalues not converged
     c_bands:  1 eigenvalues not converged
     c_bands:  1 eigenvalues not converged
     c_bands:  1 eigenvalues not converged
     c_bands:  1 eigenvalues not converged
     c_bands:  1 eigenvalues not converged
     c_bands:  1 eigenvalues not converged
     c_bands:  1 eigenvalues not converged
     c_bands:  1 eigenvalues not converged
     c_bands:  1 eigenvalues not converged
     c_bands:  1 eigenvalues not converged
     ethr =  1.00E-06,  avg # of iterations = 13.8

     total cpu time spent up to now is     1341.2 secs

     total energy              =    -154.61583977 Ry
     estimated scf accuracy    <       0.27411514 Ry

     iteration #  2     ecut=    40.00 Ry     beta= 0.70
     Davidson diagonalization with overlap
     ethr =  1.25E-03,  avg # of iterations =  2.0

     total cpu time spent up to now is     1344.8 secs

     total energy              =    -154.69846622 Ry
     estimated scf accuracy    <       0.16953945 Ry

     iteration #  3     ecut=    40.00 Ry     beta= 0.70
     Davidson diagonalization with overlap
     ethr =  7.71E-04,  avg # of iterations =  2.0

     total cpu time spent up to now is     1348.2 secs

     total energy              =    -154.72728342 Ry
     estimated scf accuracy    <       0.01243591 Ry

     iteration #  4     ecut=    40.00 Ry     beta= 0.70
     Davidson diagonalization with overlap
     ethr =  5.65E-05,  avg # of iterations =  1.6

     total cpu time spent up to now is     1351.1 secs

     total energy              =    -154.73011490 Ry
     estimated scf accuracy    <       0.00111409 Ry

     iteration #  5     ecut=    40.00 Ry     beta= 0.70
     Davidson diagonalization with overlap
     ethr =  5.06E-06,  avg # of iterations =  2.2

     total cpu time spent up to now is     1354.5 secs

     total energy              =    -154.73038006 Ry
     estimated scf accuracy    <       0.00008217 Ry

     iteration #  6     ecut=    40.00 Ry     beta= 0.70
     Davidson diagonalization with overlap
     ethr =  3.74E-07,  avg # of iterations =  1.7

     total cpu time spent up to now is     1357.3 secs

     total energy              =    -154.73039489 Ry
     estimated scf accuracy    <       0.00000003 Ry

     iteration #  7     ecut=    40.00 Ry     beta= 0.70
     Davidson diagonalization with overlap
     ethr =  1.17E-10,  avg # of iterations =  4.3

     total cpu time spent up to now is     1361.8 secs

     total energy              =    -154.73039504 Ry
     estimated scf accuracy    <       0.00000006 Ry

     iteration #  8     ecut=    40.00 Ry     beta= 0.70
     Davidson diagonalization with overlap
     ethr =  1.17E-10,  avg # of iterations =  2.0

     total cpu time spent up to now is     1364.9 secs

     End of self-consistent calculation

     Number of k-points >= 100: set verbosity='high' to print the bands.

     the Fermi energy is    15.7582 ev

!    total energy              =    -154.73039505 Ry
     estimated scf accuracy    <          7.3E-10 Ry
     smearing contrib. (-TS)   =       0.00006743 Ry
     internal energy E=F+TS    =    -154.73046248 Ry

     The total energy is F=E-TS. E is the sum of the following terms:
     one-electron contribution =      -4.10480426 Ry
     hartree contribution      =      27.67159352 Ry
     xc contribution           =     -24.55064869 Ry
     ewald contribution        =    -153.74660305 Ry

     convergence has been achieved in   8 iterations


     Computing stress (Cartesian axis) and pressure

          total   stress  (Ry/bohr**3)                   (kbar)     P=       -0.85
  -0.00000573   0.00000000   0.00000000           -0.84        0.00        0.00
   0.00000000  -0.00000573   0.00000000            0.00       -0.84        0.00
   0.00000000   0.00000000  -0.00000592            0.00        0.00       -0.87

     Message from routine punch:
     Nothing written, as per user request (disk_io='none')

     init_run     :      5.03s CPU      5.45s WALL (       2 calls)
     electrons    :   1179.62s CPU   1268.07s WALL (      33 calls)
     update_pot   :      0.38s CPU      0.39s WALL (      31 calls)
     stress       :     87.27s CPU     89.10s WALL (      33 calls)

     Called by init_run:
     wfcinit      :      3.37s CPU      3.62s WALL (       2 calls)
     potinit      :      0.34s CPU      0.34s WALL (       2 calls)
     hinit0       :      0.90s CPU      0.95s WALL (       2 calls)

     Called by electrons:
     c_bands      :    987.51s CPU   1060.92s WALL (     207 calls)
     sum_band     :    174.24s CPU    188.90s WALL (     207 calls)
     v_of_rho     :      1.00s CPU      1.02s WALL (     217 calls)
     newd         :     18.84s CPU     19.21s WALL (     217 calls)
     mix_rho      :      0.50s CPU      0.52s WALL (     207 calls)

     Called by c_bands:
     init_us_2    :     28.95s CPU     31.03s WALL (   88004 calls)
     cegterg      :    935.53s CPU   1005.80s WALL (   40572 calls)

     Called by *egterg:
     cdiaghg      :     39.60s CPU     42.24s WALL (  126380 calls)
     h_psi        :    776.47s CPU    836.21s WALL (  137356 calls)
     s_psi        :     13.84s CPU     14.92s WALL (  137356 calls)
     g_psi        :      4.27s CPU      4.56s WALL (   96392 calls)

     Called by h_psi:
     h_psi:calbec :     27.53s CPU     29.79s WALL (  137356 calls)
     vloc_psi     :    728.47s CPU    784.45s WALL (  137356 calls)
     add_vuspsi   :     15.48s CPU     16.73s WALL (  137356 calls)

     General routines
     calbec       :     55.99s CPU     60.08s WALL (  262012 calls)
     fft          :      1.72s CPU      1.84s WALL (    1356 calls)
     ffts         :      0.36s CPU      0.38s WALL (     424 calls)
     fftw         :    717.44s CPU    775.42s WALL ( 3804884 calls)
     interpolate  :      0.58s CPU      0.61s WALL (     217 calls)

     Parallel routines

     PWSCF        :  21m15.28s CPU  22m46.18s WALL


   This run was terminated on:  18:58:36  21Oct2025            

=------------------------------------------------------------------------------=
   JOB DONE.
=------------------------------------------------------------------------------=
