LAMMPS (22 Jul 2025 - Update 1)
Reading data file ...
  orthogonal box = (0 0 0) to (8.7451919 8.7451919 30.551354)
  1 by 1 by 1 MPI processor grid
  reading atoms ...
  90 atoms
  read_data CPU = 0.001 seconds
WARNING: No fixes with time integration, atoms won't move
For more information see https://docs.lammps.org/err0028 (../verlet.cpp:60)
Generated 0 of 0 mixed pair_coeff terms from geometric mixing rule
Neighbor list info ...
  update: every = 1 steps, delay = 0 steps, check = yes
  max neighbors/atom: 2000, page size: 100000
  master list distance cutoff = 6.5
  ghost atom cutoff = 6.5
  binsize = 3.25, bins = 3 3 10
  1 neighbor lists, perpetual/occasional/extra = 1 0 0
  (1) pair lj/cut, perpetual
      attributes: half, newton on
      pair build: half/bin/atomonly/newton
      stencil: half/bin/3d
      bin: standard
Setting up Verlet run ...
  Unit style    : metal
  Current step  : 0
  Time step     : 0.001
Per MPI rank memory allocation (min/avg/max) = 3.067 | 3.067 | 3.067 Mbytes
   Step         PotEng           Lx             Ly             Lz           Press           Pxx            Pyy            Pzz      
         0  -221.30679      8.7451919      8.7451919      30.551354      0.22894954    -1660.5876     -1660.5876      3321.8621    
Loop time of 1.408e-06 on 1 procs for 0 steps with 90 atoms

0.0% CPU use with 1 MPI tasks x no OpenMP threads

MPI task timing breakdown:
Section |  min time  |  avg time  |  max time  |%varavg| %total
---------------------------------------------------------------
Pair    | 0          | 0          | 0          |   0.0 |  0.00
Neigh   | 0          | 0          | 0          |   0.0 |  0.00
Comm    | 0          | 0          | 0          |   0.0 |  0.00
Output  | 0          | 0          | 0          |   0.0 |  0.00
Modify  | 0          | 0          | 0          |   0.0 |  0.00
Other   |            | 1.408e-06  |            |       |100.00

Nlocal:             90 ave          90 max          90 min
Histogram: 1 0 0 0 0 0 0 0 0 0
Nghost:            475 ave         475 max         475 min
Histogram: 1 0 0 0 0 0 0 0 0 0
Neighs:           2160 ave        2160 max        2160 min
Histogram: 1 0 0 0 0 0 0 0 0 0

Total # of neighbors = 2160
Ave neighs/atom = 24
Neighbor list builds = 0
Dangerous builds = 0
Generated 0 of 0 mixed pair_coeff terms from geometric mixing rule
Setting up cg style minimization ...
  Unit style    : metal
  Current step  : 0
WARNING: Energy due to 3 extra global DOFs will be included in minimizer energies
 (../min.cpp:222)
Per MPI rank memory allocation (min/avg/max) = 4.192 | 4.192 | 4.192 Mbytes
   Step         PotEng           Lx             Ly             Lz           Press           Pxx            Pyy            Pzz      
         0  -221.30679      8.7451919      8.7451919      30.551354      0.22894954    -1660.5876     -1660.5876      3321.8621    
        61  -221.33732      8.728151       8.728151       30.551354     -15.302826      1.437536       1.437536      -48.78355     
Loop time of 0.00565447 on 1 procs for 61 steps with 90 atoms

83.2% CPU use with 1 MPI tasks x no OpenMP threads

Minimization stats:
  Stopping criterion = energy tolerance
  Energy initial, next-to-last, final = 
     -221.306787143034  -221.337324107339  -221.337324122815
  Force two-norm initial, final = 3.5132508 0.0057745297
  Force max component initial, final = 2.4217014 0.0020923312
  Final line search alpha, max atom move = 0.18103006 0.00037877484
  Iterations, force evaluations = 61 122

MPI task timing breakdown:
Section |  min time  |  avg time  |  max time  |%varavg| %total
---------------------------------------------------------------
Pair    | 0.0036789  | 0.0036789  | 0.0036789  |   0.0 | 65.06
Neigh   | 0          | 0          | 0          |   0.0 |  0.00
Comm    | 0.00027431 | 0.00027431 | 0.00027431 |   0.0 |  4.85
Output  | 0          | 0          | 0          |   0.0 |  0.00
Modify  | 0          | 0          | 0          |   0.0 |  0.00
Other   |            | 0.001701   |            |       | 30.09

Nlocal:             90 ave          90 max          90 min
Histogram: 1 0 0 0 0 0 0 0 0 0
Nghost:            475 ave         475 max         475 min
Histogram: 1 0 0 0 0 0 0 0 0 0
Neighs:           2160 ave        2160 max        2160 min
Histogram: 1 0 0 0 0 0 0 0 0 0

Total # of neighbors = 2160
Ave neighs/atom = 24
Neighbor list builds = 0
Dangerous builds = 0
Total energy (eV) = -221.337324122815
Number of atoms = 90
Lattice constant (Angstoms) = 8.72815098325352
Total wall time: 0:00:00
