
     Program PWSCF v.7.4.1 starts on  7Oct2025 at 23:57:23 

     This program is part of the open-source Quantum ESPRESSO suite
     for quantum simulation of materials; please cite
         "P. Giannozzi et al., J. Phys.:Condens. Matter 21 395502 (2009);
         "P. Giannozzi et al., J. Phys.:Condens. Matter 29 465901 (2017);
         "P. Giannozzi et al., J. Chem. Phys. 152 154105 (2020);
          URL http://www.quantum-espresso.org", 
     in publications or presentations arising from this work. More details at
     http://www.quantum-espresso.org/quote

     Parallel version (MPI), running on     1 processors

     MPI processes distributed on     1 nodes
     243 MiB available memory on the printing compute node when the environment starts

     Waiting for input...
     Reading input from standard input
Warning: card &CELL ignored
Warning: card / ignored

     Current dimensions of program PWSCF are:
     Max number of different atomic species (ntypx) = 10
     Max number of k-points (npk) =  40000
     Max angular momentum in pseudopotentials (lmaxx) =  4
     Message from routine setup:
     using ibrav=0 with symmetry is DISCOURAGED, use correct ibrav instead

     Subspace diagonalization in iterative solution of the eigenvalue problem:
     a serial algorithm will be used


     G-vector sticks info
     --------------------
     sticks:   dense  smooth     PW     G-vecs:    dense   smooth      PW
     Sum         559     559    163                 8609     8609    1459

     Using Slab Decomposition



     bravais-lattice index     =            0
     lattice parameter (alat)  =       7.5604  a.u.
     unit-cell volume          =     305.5804 (a.u.)^3
     number of atoms/cell      =            2
     number of atomic types    =            1
     number of electrons       =        28.00
     number of Kohn-Sham states=           14
     kinetic-energy cutoff     =      35.0000  Ry
     charge density cutoff     =     140.0000  Ry
     scf convergence threshold =      1.0E-07
     mixing beta               =       0.5000
     number of iterations used =            8  plain     mixing
     Exchange-correlation=  SLA  PZ   NOGX NOGC
                           (   1   1   0   0   0   0   0)

     celldm(1)=   7.560435  celldm(2)=   0.000000  celldm(3)=   0.000000
     celldm(4)=   0.000000  celldm(5)=   0.000000  celldm(6)=   0.000000

     crystal axes: (cart. coord. in units of alat)
               a(1) = (   0.000000   0.707107   0.707107 )  
               a(2) = (   0.707107   0.000000   0.707107 )  
               a(3) = (   0.707107   0.707107   0.000000 )  

     reciprocal axes: (cart. coord. in units 2 pi/alat)
               b(1) = ( -0.707107  0.707107  0.707107 )  
               b(2) = (  0.707107 -0.707107  0.707107 )  
               b(3) = (  0.707107  0.707107 -0.707107 )  


     PseudoPot. # 1 for Ge read from file:
     /home/bond/Software/QE/qe-7.4.1/pseudo/ge_lda_v1.4.uspp.F.UPF
     MD5 check sum: bf9d52b59cc8a669818bb2b52e0c2ba0
     Pseudo is Ultrasoft + core correction, Zval = 14.0
     Generated by new atomic code, or converted to UPF format
     Using radial grid of  873 points,  6 beta functions with: 
                l(1) =   0
                l(2) =   0
                l(3) =   1
                l(4) =   1
                l(5) =   2
                l(6) =   2
     Q(r) pseudized with  8 coefficients,  rinner =    1.400   1.400   1.400
                                                       1.400   1.400

     atomic species   valence    mass     pseudopotential
     Ge               14.00    72.63000     Ge( 1.00)

     48 Sym. Ops., with inversion, found (24 have fractional translation)



   Cartesian axes

     site n.     atom                  positions (alat units)
         1        Ge     tau(   1) = (   0.0000000   0.0000000   0.0000000  )
         2        Ge     tau(   2) = (   0.3535534   0.3535534   0.3535534  )

     number of k points=     8
                       cart. coord. in units 2pi/alat
        k(    1) = (   0.0000000   0.0000000   0.0000000), wk =   0.0312500
        k(    2) = (   0.1767767   0.1767767  -0.1767767), wk =   0.2500000
        k(    3) = (  -0.3535534  -0.3535534   0.3535534), wk =   0.1250000
        k(    4) = (   0.3535534   0.0000000   0.0000000), wk =   0.1875000
        k(    5) = (  -0.1767767  -0.5303301   0.5303301), wk =   0.7500000
        k(    6) = (   0.0000000  -0.3535534   0.3535534), wk =   0.3750000
        k(    7) = (  -0.7071068   0.0000000   0.0000000), wk =   0.0937500
        k(    8) = (  -0.7071068   0.3535534   0.0000000), wk =   0.1875000

     Dense  grid:     8609 G-vectors     FFT dimensions: (  32,  32,  32)

     Estimated max dynamical RAM per process >      35.83 MB

     Check: negative core charge=   -0.000016

     Initial potential from superposition of free atoms

     starting charge      27.9986, renormalised to      28.0000
     Starting wfcs are   18 randomized atomic wfcs

     total cpu time spent up to now is        0.8 secs

     Self-consistent Calculation

     iteration #  1     ecut=    35.00 Ry     beta= 0.50
     Davidson diagonalization with overlap
     ethr =  1.00E-02,  avg # of iterations =  1.8

     Threshold (ethr) on eigenvalues was too large:
     Diagonalizing with lowered threshold

     Davidson diagonalization with overlap
     ethr =  1.31E-04,  avg # of iterations =  2.0

     total cpu time spent up to now is        1.3 secs

     total energy              =    -426.15033564 Ry
     estimated scf accuracy    <       0.03941285 Ry

     iteration #  2     ecut=    35.00 Ry     beta= 0.50
     Davidson diagonalization with overlap
     ethr =  1.41E-04,  avg # of iterations =  1.1

     total cpu time spent up to now is        1.5 secs

     total energy              =    -426.14880135 Ry
     estimated scf accuracy    <       0.00696483 Ry

     iteration #  3     ecut=    35.00 Ry     beta= 0.50
     Davidson diagonalization with overlap
     ethr =  2.49E-05,  avg # of iterations =  2.0

     total cpu time spent up to now is        1.8 secs

     total energy              =    -426.14930131 Ry
     estimated scf accuracy    <       0.00007415 Ry

     iteration #  4     ecut=    35.00 Ry     beta= 0.50
     Davidson diagonalization with overlap
     ethr =  2.65E-07,  avg # of iterations =  3.5

     total cpu time spent up to now is        2.1 secs

     total energy              =    -426.14932226 Ry
     estimated scf accuracy    <       0.00000308 Ry

     iteration #  5     ecut=    35.00 Ry     beta= 0.50
     Davidson diagonalization with overlap
     ethr =  1.10E-08,  avg # of iterations =  3.5

     total cpu time spent up to now is        2.4 secs

     total energy              =    -426.14932316 Ry
     estimated scf accuracy    <       0.00000012 Ry

     iteration #  6     ecut=    35.00 Ry     beta= 0.50
     Davidson diagonalization with overlap
     ethr =  4.33E-10,  avg # of iterations =  4.8

     total cpu time spent up to now is        2.9 secs

     End of self-consistent calculation

          k = 0.0000 0.0000 0.0000 (  1067 PWs)   bands (ev):

   -16.6846 -16.6846 -16.6846 -16.6496 -16.6496 -16.4387 -16.4387 -16.4387
   -16.4240 -16.4240  -4.6286   8.0071   8.1965   8.1965

          k = 0.1768 0.1768-0.1768 (  1074 PWs)   bands (ev):

   -16.7032 -16.7032 -16.6765 -16.6207 -16.6207 -16.4640 -16.4640 -16.4485
   -16.4046 -16.4046  -3.8866   3.4147   7.3105   7.3105

          k =-0.3536-0.3536 0.3536 (  1068 PWs)   bands (ev):

   -16.7097 -16.7097 -16.6679 -16.6070 -16.6070 -16.4728 -16.4728 -16.4587
   -16.3974 -16.3974  -2.5398   0.5411   6.7883   6.7883

          k = 0.3536 0.0000 0.0000 (  1062 PWs)   bands (ev):

   -16.7036 -16.7036 -16.6912 -16.6149 -16.5798 -16.5254 -16.4556 -16.4120
   -16.4096 -16.4096  -3.6188   3.4063   6.1508   6.1508

          k =-0.1768-0.5303 0.5303 (  1076 PWs)   bands (ev):

   -16.7308 -16.7161 -16.6478 -16.5802 -16.5606 -16.5420 -16.4941 -16.4622
   -16.3897 -16.3753  -2.1303   0.7527   4.4378   5.7863

          k = 0.0000-0.3536 0.3536 (  1065 PWs)   bands (ev):

   -16.7256 -16.7186 -16.6412 -16.6047 -16.5773 -16.5055 -16.4858 -16.4723
   -16.3860 -16.3825  -2.7443   1.6071   4.2979   6.6868

          k =-0.7071 0.0000 0.0000 (  1090 PWs)   bands (ev):

   -16.7197 -16.7197 -16.6337 -16.6337 -16.5346 -16.5346 -16.4765 -16.4765
   -16.3842 -16.3842  -0.7472  -0.7472   5.1124   5.1124

          k =-0.7071 0.3536 0.0000 (  1084 PWs)   bands (ev):

   -16.7333 -16.7333 -16.5911 -16.5911 -16.5422 -16.5422 -16.5104 -16.5104
   -16.3715 -16.3715  -0.6493  -0.6493   4.2630   4.2630

     highest occupied level (ev):     8.1965

!    total energy              =    -426.14932321 Ry
     estimated scf accuracy    <       0.00000003 Ry

     The total energy is the sum of the following terms:
     one-electron contribution =    -279.22613885 Ry
     hartree contribution      =     165.11959171 Ry
     xc contribution           =    -114.54830101 Ry
     ewald contribution        =    -197.49447506 Ry

     convergence has been achieved in   6 iterations

     Forces acting on atoms (cartesian axes, Ry/au):

     atom    1 type  1   force =     0.00000000    0.00000000    0.00000000
     atom    2 type  1   force =    -0.00000000   -0.00000000   -0.00000000

     Total force =     0.000000     Total SCF correction =     0.000000


     Computing stress (Cartesian axis) and pressure

          total   stress  (Ry/bohr**3)                   (kbar)     P=      -16.30
  -0.00011081  -0.00000000  -0.00000000          -16.30       -0.00       -0.00
  -0.00000000  -0.00011081  -0.00000000           -0.00      -16.30       -0.00
  -0.00000000  -0.00000000  -0.00011081           -0.00       -0.00      -16.30

     Message from routine punch:
     Nothing written, as per user request (disk_io='none')

     init_run     :      0.64s CPU      0.65s WALL (       1 calls)
     electrons    :      1.96s CPU      2.09s WALL (       1 calls)
     forces       :      0.06s CPU      0.07s WALL (       1 calls)
     stress       :      0.60s CPU      0.74s WALL (       1 calls)

     Called by init_run:
     wfcinit      :      0.23s CPU      0.23s WALL (       1 calls)
     potinit      :      0.02s CPU      0.02s WALL (       1 calls)
     hinit0       :      0.36s CPU      0.36s WALL (       1 calls)

     Called by electrons:
     c_bands      :      1.27s CPU      1.37s WALL (       7 calls)
     sum_band     :      0.49s CPU      0.51s WALL (       7 calls)
     v_of_rho     :      0.02s CPU      0.02s WALL (       7 calls)
     newd         :      0.21s CPU      0.22s WALL (       7 calls)
     mix_rho      :      0.01s CPU      0.01s WALL (       7 calls)

     Called by c_bands:
     init_us_2    :      0.06s CPU      0.07s WALL (     136 calls)
     cegterg      :      1.13s CPU      1.22s WALL (      56 calls)

     Called by *egterg:
     cdiaghg      :      0.06s CPU      0.06s WALL (     197 calls)
     h_psi        :      1.10s CPU      1.19s WALL (     213 calls)
     s_psi        :      0.03s CPU      0.03s WALL (     213 calls)
     g_psi        :      0.01s CPU      0.01s WALL (     149 calls)

     Called by h_psi:
     h_psi:calbec :      0.04s CPU      0.04s WALL (     213 calls)
     vloc_psi     :      1.01s CPU      1.10s WALL (     213 calls)
     add_vuspsi   :      0.04s CPU      0.04s WALL (     213 calls)

     General routines
     calbec       :      0.09s CPU      0.09s WALL (     405 calls)
     fft          :      0.17s CPU      0.17s WALL (      37 calls)
     ffts         :      0.00s CPU      0.00s WALL (       7 calls)
     fftw         :      0.97s CPU      1.04s WALL (    5080 calls)

     Parallel routines

     PWSCF        :      3.41s CPU      3.70s WALL


   This run was terminated on:  23:57:27   7Oct2025            

=------------------------------------------------------------------------------=
   JOB DONE.
=------------------------------------------------------------------------------=
