
     Program PWSCF v.7.4.1 starts on 20Oct2025 at 17:53: 3 

     This program is part of the open-source Quantum ESPRESSO suite
     for quantum simulation of materials; please cite
         "P. Giannozzi et al., J. Phys.:Condens. Matter 21 395502 (2009);
         "P. Giannozzi et al., J. Phys.:Condens. Matter 29 465901 (2017);
         "P. Giannozzi et al., J. Chem. Phys. 152 154105 (2020);
          URL http://www.quantum-espresso.org", 
     in publications or presentations arising from this work. More details at
     http://www.quantum-espresso.org/quote

     Parallel version (MPI), running on     2 processors

     MPI processes distributed on     1 nodes
     319 MiB available memory on the printing compute node when the environment starts

     Waiting for input...
     Reading input from standard input

     Current dimensions of program PWSCF are:
     Max number of different atomic species (ntypx) = 10
     Max number of k-points (npk) =  40000
     Max angular momentum in pseudopotentials (lmaxx) =  4
     file Fe.pbe-nd-rrkjus.UPF: wavefunction(s)  4S renormalized
     Message from routine setup:
     using ibrav=0 with symmetry is DISCOURAGED, use correct ibrav instead

     R & G space division:  proc/nbgrp/npool/nimage =       2
     Subspace diagonalization in iterative solution of the eigenvalue problem:
     a serial algorithm will be used


     Parallelization info
     --------------------
     sticks:   dense  smooth     PW     G-vecs:    dense   smooth      PW
     Min         218      86     31                 2887      739     160
     Max         219      87     32                 2888      742     161
     Sum         437     173     63                 5775     1481     321

     Using Slab Decomposition



     bravais-lattice index     =            0
     lattice parameter (alat)  =       4.4187  a.u.
     unit-cell volume          =      66.4137 (a.u.)^3
     number of atoms/cell      =            1
     number of atomic types    =            1
     number of electrons       =         8.00
     number of Kohn-Sham states=            8
     kinetic-energy cutoff     =      30.0000  Ry
     charge density cutoff     =     300.0000  Ry
     scf convergence threshold =      1.0E-07
     mixing beta               =       0.5000
     number of iterations used =            8  plain     mixing
     energy convergence thresh.=      1.0E-04
     force convergence thresh. =      1.0E-03
     press convergence thresh. =      5.0E-01
     Exchange-correlation=  SLA  PW   PBE  PBE
                           (   1   4   3   4   0   0   0)
     nstep                     =           50


     celldm(1)=   4.418687  celldm(2)=   0.000000  celldm(3)=   0.000000
     celldm(4)=   0.000000  celldm(5)=   0.000000  celldm(6)=   0.000000

     crystal axes: (cart. coord. in units of alat)
               a(1) = (  -0.577350   0.577350   0.577350 )  
               a(2) = (   0.577350  -0.577350   0.577350 )  
               a(3) = (   0.577350   0.577350  -0.577350 )  

     reciprocal axes: (cart. coord. in units 2 pi/alat)
               b(1) = (  0.000000  0.866025  0.866025 )  
               b(2) = (  0.866025  0.000000  0.866025 )  
               b(3) = (  0.866025  0.866025  0.000000 )  


     PseudoPot. # 1 for Fe read from file:
     /home/bond/Software/QE/qe-7.4.1/pseudo/Fe.pbe-nd-rrkjus.UPF
     MD5 check sum: 398036227a04b607635f6f5e8dfd8242
     Pseudo is Ultrasoft + core correction, Zval =  8.0
     Generated by new atomic code, or converted to UPF format
     Using radial grid of  957 points,  6 beta functions with: 
                l(1) =   0
                l(2) =   0
                l(3) =   1
                l(4) =   1
                l(5) =   2
                l(6) =   2
     Q(r) pseudized with 0 coefficients 


     atomic species   valence    mass     pseudopotential
     Fe                8.00    55.84500     Fe( 1.00)

     Starting magnetic structure 
     atomic species   magnetization
     Fe              0.700

     48 Sym. Ops., with inversion, found



   Cartesian axes

     site n.     atom                  positions (alat units)
         1        Fe     tau(   1) = (   0.0000000   0.0000000   0.0000000  )

     number of k points=    20  Methfessel-Paxton smearing, width (Ry)=  0.0200
                       cart. coord. in units 2pi/alat
        k(    1) = (   0.0000000   0.0000000   0.0000000), wk =   0.0029155
        k(    2) = (   0.1237179   0.1237179   0.0000000), wk =   0.0349854
        k(    3) = (   0.2474358   0.2474358   0.0000000), wk =   0.0349854
        k(    4) = (   0.3711537   0.3711537   0.0000000), wk =   0.0349854
        k(    5) = (   0.2474358   0.1237179   0.1237179), wk =   0.0699708
        k(    6) = (   0.3711537   0.2474358   0.1237179), wk =   0.1399417
        k(    7) = (   0.4948717   0.3711537   0.1237179), wk =   0.0699708
        k(    8) = (   0.4948717   0.2474358   0.2474358), wk =   0.0699708
        k(    9) = (   0.2474358   0.2474358   0.2474358), wk =   0.0233236
        k(   10) = (   0.3711537   0.3711537   0.2474358), wk =   0.0699708
        k(   11) = (  -0.0000000  -0.0000000   0.2474358), wk =   0.0174927
        k(   12) = (   0.4948717   0.3711537   0.3711537), wk =   0.0233236
        k(   13) = (   0.0000000  -0.1237179   0.3711537), wk =   0.0699708
        k(   14) = (  -0.0000000  -0.2474358   0.4948717), wk =   0.0699708
        k(   15) = (   0.1237179  -0.1237179   0.4948717), wk =   0.0699708
        k(   16) = (  -0.7423075  -0.2474358  -0.2474358), wk =   0.0699708
        k(   17) = (   0.0000000   0.0000000   0.4948717), wk =   0.0174927
        k(   18) = (  -0.0000000  -0.1237179   0.6185896), wk =   0.0699708
        k(   19) = (  -0.7423075  -0.1237179  -0.1237179), wk =   0.0233236
        k(   20) = (  -0.0000000  -0.0000000   0.7423075), wk =   0.0174927

     Dense  grid:     5775 G-vectors     FFT dimensions: (  25,  25,  25)

     Smooth grid:     1481 G-vectors     FFT dimensions: (  15,  15,  15)

     Estimated max dynamical RAM per process >      15.12 MB

     Estimated total dynamical RAM >      30.25 MB

     Check: negative core charge=   -0.000001
     Generating pointlists ...
     new r_m :   0.4125 (alat units)  1.8227 (a.u.) for type    1

     Initial potential from superposition of free atoms

     starting charge       7.9994, renormalised to       8.0000
     Starting wfcs are    6 randomized atomic wfcs +    2 random wfcs

     total cpu time spent up to now is        0.5 secs

     Self-consistent Calculation

     iteration #  1     ecut=    30.00 Ry     beta= 0.50
     Davidson diagonalization with overlap
     ethr =  1.00E-02,  avg # of iterations =  4.3

     total cpu time spent up to now is        0.6 secs

     total energy              =     -55.66966568 Ry
     estimated scf accuracy    <       0.28670547 Ry

     total magnetization       =     2.88 Bohr mag/cell
     absolute magnetization    =     2.88 Bohr mag/cell

     iteration #  2     ecut=    30.00 Ry     beta= 0.50
     Davidson diagonalization with overlap
     ethr =  3.58E-03,  avg # of iterations =  1.6

     total cpu time spent up to now is        0.7 secs

     total energy              =     -55.76141196 Ry
     estimated scf accuracy    <       0.03464552 Ry

     total magnetization       =     2.57 Bohr mag/cell
     absolute magnetization    =     2.58 Bohr mag/cell

     iteration #  3     ecut=    30.00 Ry     beta= 0.50
     Davidson diagonalization with overlap
     ethr =  4.33E-04,  avg # of iterations =  1.4

     total cpu time spent up to now is        0.7 secs

     total energy              =     -55.78196223 Ry
     estimated scf accuracy    <       0.01088771 Ry

     total magnetization       =     2.46 Bohr mag/cell
     absolute magnetization    =     2.48 Bohr mag/cell

     iteration #  4     ecut=    30.00 Ry     beta= 0.50
     Davidson diagonalization with overlap
     ethr =  1.36E-04,  avg # of iterations =  1.3

     total cpu time spent up to now is        0.8 secs

     total energy              =     -55.78753912 Ry
     estimated scf accuracy    <       0.00031530 Ry

     total magnetization       =     2.24 Bohr mag/cell
     absolute magnetization    =     2.31 Bohr mag/cell

     iteration #  5     ecut=    30.00 Ry     beta= 0.50
     Davidson diagonalization with overlap
     ethr =  3.94E-06,  avg # of iterations =  6.3

     total cpu time spent up to now is        1.0 secs

     total energy              =     -55.78775556 Ry
     estimated scf accuracy    <       0.00029282 Ry

     total magnetization       =     2.19 Bohr mag/cell
     absolute magnetization    =     2.27 Bohr mag/cell

     iteration #  6     ecut=    30.00 Ry     beta= 0.50
     Davidson diagonalization with overlap
     ethr =  3.66E-06,  avg # of iterations =  1.6

     total cpu time spent up to now is        1.0 secs

     total energy              =     -55.78789916 Ry
     estimated scf accuracy    <       0.00002992 Ry

     total magnetization       =     2.17 Bohr mag/cell
     absolute magnetization    =     2.24 Bohr mag/cell

     iteration #  7     ecut=    30.00 Ry     beta= 0.50
     Davidson diagonalization with overlap
     ethr =  3.74E-07,  avg # of iterations =  3.4

     total cpu time spent up to now is        1.1 secs

     total energy              =     -55.78786351 Ry
     estimated scf accuracy    <       0.00040148 Ry

     total magnetization       =     2.17 Bohr mag/cell
     absolute magnetization    =     2.24 Bohr mag/cell

     iteration #  8     ecut=    30.00 Ry     beta= 0.50
     Davidson diagonalization with overlap
     ethr =  3.74E-07,  avg # of iterations =  2.6

     total cpu time spent up to now is        1.2 secs

     total energy              =     -55.78795458 Ry
     estimated scf accuracy    <       0.00000083 Ry

     total magnetization       =     2.16 Bohr mag/cell
     absolute magnetization    =     2.23 Bohr mag/cell

     iteration #  9     ecut=    30.00 Ry     beta= 0.50
     Davidson diagonalization with overlap
     ethr =  1.03E-08,  avg # of iterations =  4.0

     total cpu time spent up to now is        1.3 secs

     total energy              =     -55.78795525 Ry
     estimated scf accuracy    <       0.00000066 Ry

     total magnetization       =     2.16 Bohr mag/cell
     absolute magnetization    =     2.23 Bohr mag/cell

     iteration # 10     ecut=    30.00 Ry     beta= 0.50
     Davidson diagonalization with overlap
     ethr =  8.27E-09,  avg # of iterations =  1.9

     total cpu time spent up to now is        1.4 secs

     total energy              =     -55.78795559 Ry
     estimated scf accuracy    <       0.00000064 Ry

     total magnetization       =     2.16 Bohr mag/cell
     absolute magnetization    =     2.23 Bohr mag/cell

     iteration # 11     ecut=    30.00 Ry     beta= 0.50
     Davidson diagonalization with overlap
     ethr =  8.00E-09,  avg # of iterations =  1.2

     Magnetic moment per site  (integrated on atomic sphere of radius R)
     atom   1 (R=0.413)  charge=  6.3572  magn=  2.1701

     total cpu time spent up to now is        1.5 secs

     End of self-consistent calculation

 ------ SPIN UP ------------


          k = 0.0000 0.0000 0.0000 (   177 PWs)   bands (ev):

     7.0406  13.5974  13.5974  13.5974  15.1086  15.1086  42.3364  42.3364

          k = 0.1237 0.1237 0.0000 (   189 PWs)   bands (ev):

     7.9640  13.3246  13.5367  14.1391  14.9014  15.1343  38.6420  41.1699

          k = 0.2474 0.2474 0.0000 (   182 PWs)   bands (ev):

     9.9694  12.7461  13.6031  14.9772  15.2289  15.4823  32.1053  38.1259

          k = 0.3712 0.3712 0.0000 (   182 PWs)   bands (ev):

    10.5010  12.3109  15.1315  15.3423  16.1595  16.7331  26.2342  36.0367

          k = 0.2474 0.1237 0.1237 (   181 PWs)   bands (ev):

     9.5461  13.0502  13.0727  14.7423  15.2404  15.3623  35.2507  36.6511

          k = 0.3712 0.2474 0.1237 (   184 PWs)   bands (ev):

    10.9747  12.5072  13.4955  14.9992  15.5385  17.4118  29.2148  33.7379

          k = 0.4949 0.3712 0.1237 (   184 PWs)   bands (ev):

    10.9391  12.3353  14.2548  15.1626  15.9480  19.5770  25.1219  32.7821

          k = 0.4949 0.2474 0.2474 (   183 PWs)   bands (ev):

    11.7839  12.3428  13.0876  15.2407  15.6516  21.2372  26.6736  28.3558

          k = 0.2474 0.2474 0.2474 (   183 PWs)   bands (ev):

    11.3670  12.4726  12.4726  15.2016  15.2016  17.4554  32.5539  32.5539

          k = 0.3712 0.3712 0.2474 (   178 PWs)   bands (ev):

    11.7063  12.2050  13.4282  15.3143  15.3734  20.5808  26.9014  31.0328

          k =-0.0000-0.0000 0.2474 (   177 PWs)   bands (ev):

     8.8153  13.6536  13.6536  14.1328  14.1893  15.4820  37.7922  40.4043

          k = 0.4949 0.3712 0.3712 (   179 PWs)   bands (ev):

    12.0295  12.7164  12.7164  15.4046  15.4046  24.8158  24.8158  27.4066

          k = 0.0000-0.1237 0.3712 (   185 PWs)   bands (ev):

    10.6009  13.0686  13.3053  14.4398  15.3639  16.0928  32.7137  37.1870

          k =-0.0000-0.2474 0.4949 (   181 PWs)   bands (ev):

    11.0025  12.9362  13.2424  14.8094  16.6583  18.5766  26.5684  35.6668

          k = 0.1237-0.1237 0.4949 (   181 PWs)   bands (ev):

    11.6163  12.1574  13.4771  14.7645  15.9821  18.6891  29.9552  30.8832

          k =-0.7423-0.2474-0.2474 (   191 PWs)   bands (ev):

    11.5518  12.3548  13.0430  15.1718  16.3335  22.2340  25.3928  29.5098

          k = 0.0000 0.0000 0.4949 (   188 PWs)   bands (ev):

    11.3823  12.1748  14.4568  14.4568  15.3832  17.8557  33.7643  33.7643

          k =-0.0000-0.1237 0.6186 (   192 PWs)   bands (ev):

    11.2546  11.5373  14.5596  15.0253  16.4939  21.5138  27.7584  31.2444

          k =-0.7423-0.1237-0.1237 (   194 PWs)   bands (ev):

    11.0849  11.0849  14.6820  16.2443  16.2443  25.8117  25.8117  27.4539

          k =-0.0000-0.0000 0.7423 (   180 PWs)   bands (ev):

    10.6497  10.6714  16.1761  16.1761  16.4356  24.9269  28.3474  28.3474

 ------ SPIN DOWN ----------


          k = 0.0000 0.0000 0.0000 (   177 PWs)   bands (ev):

     7.2530  15.6211  15.6211  15.6211  18.0876  18.0876  42.2350  42.2351

          k = 0.1237 0.1237 0.0000 (   189 PWs)   bands (ev):

     8.1881  15.2988  15.5240  16.2058  17.7906  18.1164  39.0309  41.2664

          k = 0.2474 0.2474 0.0000 (   182 PWs)   bands (ev):

    10.4528  14.6240  15.2448  17.6729  17.7001  18.2384  32.9645  38.3182

          k = 0.3712 0.3712 0.0000 (   182 PWs)   bands (ev):

    11.7874  14.1232  16.5339  17.9185  18.3964  19.0701  27.5455  36.1688

          k = 0.2474 0.1237 0.1237 (   181 PWs)   bands (ev):

     9.8500  14.9526  14.9920  17.3853  17.5015  18.3105  35.9018  37.1842

          k = 0.3712 0.2474 0.1237 (   184 PWs)   bands (ev):

    11.9506  14.3239  14.9521  17.6615  18.4208  19.4172  30.2193  34.3330

          k = 0.4949 0.3712 0.1237 (   184 PWs)   bands (ev):

    12.3727  14.1083  15.7550  17.8709  18.5842  21.0223  26.5252  33.3556

          k = 0.4949 0.2474 0.2474 (   183 PWs)   bands (ev):

    13.2702  14.0418  14.6322  17.9062  18.3834  22.7056  27.7861  29.2145

          k = 0.2474 0.2474 0.2474 (   183 PWs)   bands (ev):

    11.8716  14.2554  14.2554  18.1354  18.1354  19.4430  33.2752  33.2752

          k = 0.3712 0.3712 0.2474 (   178 PWs)   bands (ev):

    13.0865  13.8829  14.6759  18.2163  18.4277  22.0762  27.9748  31.7431

          k =-0.0000-0.0000 0.2474 (   177 PWs)   bands (ev):

     9.0664  15.6235  15.6235  16.2053  16.9121  18.4995  38.2307  40.8819

          k = 0.4949 0.3712 0.3712 (   179 PWs)   bands (ev):

    13.5814  14.1695  14.1695  18.4205  18.4205  25.9121  25.9121  28.3363

          k = 0.0000-0.1237 0.3712 (   185 PWs)   bands (ev):

    11.1628  15.1270  15.2149  16.7431  17.5396  18.8723  33.5679  37.6532

          k =-0.0000-0.2474 0.4949 (   181 PWs)   bands (ev):

    12.4239  14.7907  15.0152  17.2613  18.9859  20.2664  27.7955  36.1231

          k = 0.1237-0.1237 0.4949 (   181 PWs)   bands (ev):

    12.8072  14.1785  15.3575  17.0033  18.3640  20.5433  30.9838  31.6262

          k =-0.7423-0.2474-0.2474 (   191 PWs)   bands (ev):

    13.2889  14.1670  14.8702  17.4769  18.6796  23.5122  26.6351  30.3199

          k = 0.0000 0.0000 0.4949 (   188 PWs)   bands (ev):

    12.4800  14.4268  16.4224  16.4224  17.5789  19.9228  34.4454  34.4454

          k =-0.0000-0.1237 0.6186 (   192 PWs)   bands (ev):

    13.0523  13.4783  16.5533  17.0906  18.8020  22.7615  28.6891  31.8329

          k =-0.7423-0.1237-0.1237 (   194 PWs)   bands (ev):

    13.0171  13.0171  16.6359  18.4926  18.4926  26.7224  26.7224  28.1502

          k =-0.0000-0.0000 0.7423 (   180 PWs)   bands (ev):

    12.5720  12.6222  18.3922  18.3922  18.7457  25.6165  28.7631  28.7631

     the Fermi energy is    16.4132 ev

!    total energy              =     -55.78795569 Ry
     estimated scf accuracy    <       0.00000009 Ry
     smearing contrib. (-TS)   =      -0.00007972 Ry
     internal energy E=F+TS    =     -55.78787597 Ry

     The total energy is F=E-TS. E is the sum of the following terms:
     one-electron contribution =      10.66500819 Ry
     hartree contribution      =       5.74534381 Ry
     xc contribution           =     -26.54964945 Ry
     ewald contribution        =     -45.64857853 Ry

     total magnetization       =     2.16 Bohr mag/cell
     absolute magnetization    =     2.23 Bohr mag/cell

     convergence has been achieved in  11 iterations

     Forces acting on atoms (cartesian axes, Ry/au):

     atom    1 type  1   force =     0.00000000    0.00000000    0.00000000

     Total force =     0.000000     Total SCF correction =     0.000000


     Computing stress (Cartesian axis) and pressure

          total   stress  (Ry/bohr**3)                   (kbar)     P=      419.08
   0.00284885   0.00000000   0.00000000          419.08        0.00        0.00
   0.00000000   0.00284885   0.00000000            0.00      419.08        0.00
   0.00000000   0.00000000   0.00284885            0.00        0.00      419.08


     BFGS Geometry Optimization
     Energy error            =      3.6E-02 Ry
     Gradient error          =      0.0E+00 Ry/Bohr
     Cell gradient error     =      4.2E+02 kbar

     number of scf cycles    =   1
     number of bfgs steps    =   0

     enthalpy           new  =     -55.7879556872 Ry

     new trust radius        =       0.1160829508 bohr
     new conv_thr            =       0.0000001000 Ry

     new unit-cell volume =     81.63858 a.u.^3 (    12.09759 Ang^3 )
     density =      7.66540 g/cm^3

CELL_PARAMETERS (angstrom)
  -1.446148666   1.446148666   1.446148666
   1.446148666  -1.446148666   1.446148666
   1.446148666   1.446148666  -1.446148666

ATOMIC_POSITIONS (angstrom)
Fe               0.0000000000        0.0000000000        0.0000000000


     Message from routine punch:
     Nothing written, as per user request (disk_io='none')
     NEW-OLD atomic charge density approx. for the potential
     New effective cutoffs (rho, wfc):  259.02   26.11

     Check: negative core charge=   -0.000002
     Generating pointlists ...

     total cpu time spent up to now is        1.6 secs

     Self-consistent Calculation

     iteration #  1     ecut=    30.00 Ry     beta= 0.50
     Davidson diagonalization with overlap
     ethr =  1.00E-06,  avg # of iterations =  6.9

     total cpu time spent up to now is        1.8 secs

     total energy              =     -55.80012005 Ry
     estimated scf accuracy    <       0.00217733 Ry

     total magnetization       =     2.31 Bohr mag/cell
     absolute magnetization    =     2.40 Bohr mag/cell

     iteration #  2     ecut=    30.00 Ry     beta= 0.50
     Davidson diagonalization with overlap
     ethr =  2.72E-05,  avg # of iterations =  1.0

     total cpu time spent up to now is        1.9 secs

     total energy              =     -55.80070664 Ry
     estimated scf accuracy    <       0.00110274 Ry

     total magnetization       =     2.33 Bohr mag/cell
     absolute magnetization    =     2.44 Bohr mag/cell

     iteration #  3     ecut=    30.00 Ry     beta= 0.50
     Davidson diagonalization with overlap
     ethr =  1.38E-05,  avg # of iterations =  1.3

     total cpu time spent up to now is        1.9 secs

     total energy              =     -55.80104204 Ry
     estimated scf accuracy    <       0.00039058 Ry

     total magnetization       =     2.34 Bohr mag/cell
     absolute magnetization    =     2.47 Bohr mag/cell

     iteration #  4     ecut=    30.00 Ry     beta= 0.50
     Davidson diagonalization with overlap
     ethr =  4.88E-06,  avg # of iterations =  1.8

     total cpu time spent up to now is        2.0 secs

     total energy              =     -55.80125082 Ry
     estimated scf accuracy    <       0.00005689 Ry

     total magnetization       =     2.40 Bohr mag/cell
     absolute magnetization    =     2.54 Bohr mag/cell

     iteration #  5     ecut=    30.00 Ry     beta= 0.50
     Davidson diagonalization with overlap
     ethr =  7.11E-07,  avg # of iterations =  1.1

     total cpu time spent up to now is        2.1 secs

     total energy              =     -55.80128340 Ry
     estimated scf accuracy    <       0.00007550 Ry

     total magnetization       =     2.39 Bohr mag/cell
     absolute magnetization    =     2.53 Bohr mag/cell

     iteration #  6     ecut=    30.00 Ry     beta= 0.50
     Davidson diagonalization with overlap
     ethr =  7.11E-07,  avg # of iterations =  2.0

     total cpu time spent up to now is        2.2 secs

     total energy              =     -55.80142314 Ry
     estimated scf accuracy    <       0.00001194 Ry

     total magnetization       =     2.43 Bohr mag/cell
     absolute magnetization    =     2.58 Bohr mag/cell

     iteration #  7     ecut=    30.00 Ry     beta= 0.50
     Davidson diagonalization with overlap
     ethr =  1.49E-07,  avg # of iterations =  1.5

     total cpu time spent up to now is        2.2 secs

     total energy              =     -55.80142573 Ry
     estimated scf accuracy    <       0.00000445 Ry

     total magnetization       =     2.44 Bohr mag/cell
     absolute magnetization    =     2.60 Bohr mag/cell

     iteration #  8     ecut=    30.00 Ry     beta= 0.50
     Davidson diagonalization with overlap
     ethr =  5.56E-08,  avg # of iterations =  2.4

     total cpu time spent up to now is        2.3 secs

     total energy              =     -55.80144355 Ry
     estimated scf accuracy    <       0.00000084 Ry

     total magnetization       =     2.46 Bohr mag/cell
     absolute magnetization    =     2.61 Bohr mag/cell

     iteration #  9     ecut=    30.00 Ry     beta= 0.50
     Davidson diagonalization with overlap
     ethr =  1.05E-08,  avg # of iterations =  2.8

     Magnetic moment per site  (integrated on atomic sphere of radius R)
     atom   1 (R=0.413)  charge=  6.1460  magn=  2.5095

     total cpu time spent up to now is        2.4 secs

     End of self-consistent calculation

 ------ SPIN UP ------------


          k = 0.0000 0.0000 0.0000 (   177 PWs)   bands (ev):

     4.4391  10.1307  10.1307  10.1307  11.2543  11.2543  36.6300  36.6300

          k = 0.1155 0.1155-0.0000 (   189 PWs)   bands (ev):

     5.2283   9.9382  10.0973  10.5298  11.1091  11.2720  32.5236  35.2467

          k = 0.2310 0.2310-0.0000 (   182 PWs)   bands (ev):

     7.0729   9.5236  10.1630  11.1480  11.3330  11.5139  26.0027  32.3271

          k = 0.3465 0.3465-0.0000 (   182 PWs)   bands (ev):

     7.7826   9.2075  11.2560  11.4048  12.3499  12.4198  20.4086  30.5052

          k = 0.2310 0.1155 0.1155 (   181 PWs)   bands (ev):

     6.6220   9.7608   9.7614  10.9914  11.3377  11.4306  29.2224  30.2389

          k = 0.3465 0.2310 0.1155 (   184 PWs)   bands (ev):

     8.0726   9.3575  10.0846  11.1654  11.5476  13.0370  23.3021  27.6231

          k = 0.4620 0.3465 0.1155 (   184 PWs)   bands (ev):

     8.1495   9.2268  10.6771  11.2753  11.8718  15.0753  19.3590  26.7811

          k = 0.4620 0.2310 0.2310 (   183 PWs)   bands (ev):

     8.7895   9.2490   9.7912  11.3374  11.6311  16.3400  21.2060  22.3135

          k = 0.2310 0.2310 0.2310 (   183 PWs)   bands (ev):

     8.2447   9.3336   9.3336  11.3081  11.3081  13.0411  26.6781  26.6781

          k = 0.3465 0.3465 0.2310 (   178 PWs)   bands (ev):

     8.7243   9.1286  10.0307  11.3830  11.4249  15.7554  21.2121  25.3094

          k =-0.0000-0.0000 0.2310 (   177 PWs)   bands (ev):

     5.9683  10.1822  10.1822  10.5290  10.6198  11.5089  32.0533  33.6311

          k = 0.4620 0.3465 0.3465 (   179 PWs)   bands (ev):

     8.9873   9.5030   9.5030  11.4467  11.4467  19.5865  19.5865  21.4511

          k =-0.0000-0.1155 0.3465 (   185 PWs)   bands (ev):

     7.6297   9.8051   9.9351  10.7703  11.4310  11.9625  26.5771  31.1184

          k =-0.0000-0.2310 0.4620 (   181 PWs)   bands (ev):

     8.1980   9.6679   9.9296  11.0313  12.3667  14.1599  20.7749  28.8462

          k = 0.1155-0.1155 0.4620 (   181 PWs)   bands (ev):

     8.6220   9.1468  10.0724  11.0040  11.8762  14.1201  24.1113  24.6937

          k =-0.6930-0.2310-0.2310 (   191 PWs)   bands (ev):

     8.6676   9.2758   9.7471  11.2963  12.1373  17.3367  19.7588  23.5652

          k =-0.0000-0.0000 0.4620 (   188 PWs)   bands (ev):

     8.4245   9.1809  10.7824  10.7824  11.4478  13.3986  27.3400  27.3400

          k =-0.0000-0.1155 0.5775 (   192 PWs)   bands (ev):

     8.4662   8.6816  10.8592  11.1968  12.2498  16.6273  22.0188  25.1950

          k =-0.6930-0.1155-0.1155 (   194 PWs)   bands (ev):

     8.3570   8.3570  10.9490  12.0751  12.0751  20.4767  20.4767  21.6872

          k =-0.0000-0.0000 0.6930 (   180 PWs)   bands (ev):

     8.0478   8.0498  12.0269  12.0269  12.2073  19.7207  22.7953  22.7953

 ------ SPIN DOWN ----------


          k = 0.0000 0.0000 0.0000 (   177 PWs)   bands (ev):

     4.5340  12.5707  12.5707  12.5707  14.4636  14.4636  36.3169  36.3169

          k = 0.1155 0.1155-0.0000 (   189 PWs)   bands (ev):

     5.3323  12.3235  12.4879  13.0192  14.2429  14.4861  32.8100  35.1739

          k = 0.2310 0.2310-0.0000 (   182 PWs)   bands (ev):

     7.4082  11.7996  12.1516  14.1446  14.1680  14.5752  26.8101  32.3458

          k = 0.3465 0.3465-0.0000 (   182 PWs)   bands (ev):

     9.1515  11.4066  12.7365  14.3203  14.6891  15.2145  21.7868  30.4654

          k = 0.2310 0.1155 0.1155 (   181 PWs)   bands (ev):

     6.7987  12.0401  12.0670  13.9089  14.0248  14.6231  29.7672  30.7463

          k = 0.3465 0.2310 0.1155 (   184 PWs)   bands (ev):

     8.9648  11.5329  11.8386  14.1392  14.7040  15.4112  24.2806  28.1836

          k = 0.4620 0.3465 0.1155 (   184 PWs)   bands (ev):

     9.7571  11.3719  12.2761  14.2877  14.8217  16.6370  20.8842  27.3214

          k = 0.4620 0.2310 0.2310 (   183 PWs)   bands (ev):

    10.4714  11.1842  11.5851  14.3235  14.6747  17.9486  22.2982  23.1945

          k = 0.2310 0.2310 0.2310 (   183 PWs)   bands (ev):

     8.6638  11.4685  11.4685  14.4966  14.4966  15.4381  27.3246  27.3246

          k = 0.3465 0.3465 0.2310 (   178 PWs)   bands (ev):

    10.2447  11.1557  11.5168  14.5531  14.7115  17.4668  22.2991  25.9698

          k =-0.0000-0.0000 0.2310 (   177 PWs)   bands (ev):

     6.0939  12.5623  12.5623  13.0266  13.5853  14.7591  32.2722  34.1281

          k = 0.4620 0.3465 0.3465 (   179 PWs)   bands (ev):

    10.8510  11.2100  11.2100  14.7061  14.7061  20.7180  20.7180  22.4079

          k =-0.0000-0.1155 0.3465 (   185 PWs)   bands (ev):

     8.0464  12.1347  12.2462  13.4347  14.0460  14.9918  27.3615  31.4470

          k =-0.0000-0.2310 0.4620 (   181 PWs)   bands (ev):

     9.6987  11.8174  11.9147  13.8193  15.1512  15.9602  22.0365  29.4611

          k = 0.1155-0.1155 0.4620 (   181 PWs)   bands (ev):

     9.7922  11.3955  12.3121  13.6286  14.6629  16.1707  25.0662  25.4324

          k =-0.6930-0.2310-0.2310 (   191 PWs)   bands (ev):

    10.5757  11.2141  11.9368  13.9822  14.9040  18.6057  21.0513  24.3559

          k =-0.0000-0.0000 0.4620 (   188 PWs)   bands (ev):

     9.4297  11.6596  13.1564  13.1564  14.0866  15.6622  28.0059  28.0059

          k =-0.0000-0.1155 0.5775 (   192 PWs)   bands (ev):

    10.3407  10.8363  13.2656  13.6594  15.0129  17.8964  22.9209  25.7525

          k =-0.6930-0.1155-0.1155 (   194 PWs)   bands (ev):

    10.4616  10.4616  13.3019  14.7643  14.7643  21.3290  21.3290  22.3913

          k =-0.0000-0.0000 0.6930 (   180 PWs)   bands (ev):

    10.1187  10.2127  14.6867  14.6867  14.9724  20.3558  23.1496  23.1496

     the Fermi energy is    12.4497 ev

!    total energy              =     -55.80144504 Ry
     estimated scf accuracy    <       0.00000006 Ry
     smearing contrib. (-TS)   =       0.00015274 Ry
     internal energy E=F+TS    =     -55.80159778 Ry

     The total energy is F=E-TS. E is the sum of the following terms:
     one-electron contribution =       6.39959182 Ry
     hartree contribution      =       6.84812918 Ry
     xc contribution           =     -26.43573246 Ry
     ewald contribution        =     -42.61358632 Ry

     total magnetization       =     2.46 Bohr mag/cell
     absolute magnetization    =     2.62 Bohr mag/cell

     convergence has been achieved in   9 iterations

     Forces acting on atoms (cartesian axes, Ry/au):

     atom    1 type  1   force =     0.00000000    0.00000000    0.00000000

     Total force =     0.000000     Total SCF correction =     0.000000


     Computing stress (Cartesian axis) and pressure

          total   stress  (Ry/bohr**3)                   (kbar)     P=      -60.84
  -0.00041356   0.00000000   0.00000000          -60.84        0.00        0.00
   0.00000000  -0.00041356   0.00000000            0.00      -60.84        0.00
   0.00000000   0.00000000  -0.00041356            0.00        0.00      -60.84

     Energy error            =      1.3E-02 Ry
     Gradient error          =      0.0E+00 Ry/Bohr
     Cell gradient error     =      6.1E+01 kbar

     number of scf cycles    =   2
     number of bfgs steps    =   1

     enthalpy           old  =     -55.7879556872 Ry
     enthalpy           new  =     -55.8014450422 Ry

     CASE: enthalpy          _new < enthalpy          _old

     new trust radius        =       0.0171561069 bohr
     new conv_thr            =       0.0000000010 Ry

     new unit-cell volume =     79.33539 a.u.^3 (    11.75629 Ang^3 )
     density =      7.88793 g/cm^3

CELL_PARAMETERS (angstrom)
  -1.432419189   1.432419189   1.432419189
   1.432419189  -1.432419189   1.432419189
   1.432419189   1.432419189  -1.432419189

ATOMIC_POSITIONS (angstrom)
Fe               0.0000000000        0.0000000000        0.0000000000


     Message from routine punch:
     Nothing written, as per user request (disk_io='none')
     NEW-OLD atomic charge density approx. for the potential
     New effective cutoffs (rho, wfc):  264.01   26.61

     Check: negative core charge=   -0.000003
     Generating pointlists ...

     total cpu time spent up to now is        2.6 secs

     Self-consistent Calculation

     iteration #  1     ecut=    30.00 Ry     beta= 0.50
     Davidson diagonalization with overlap
     ethr =  1.00E-06,  avg # of iterations =  4.4

     total cpu time spent up to now is        2.7 secs

     total energy              =     -55.80214536 Ry
     estimated scf accuracy    <       0.00008973 Ry

     total magnetization       =     2.42 Bohr mag/cell
     absolute magnetization    =     2.57 Bohr mag/cell

     iteration #  2     ecut=    30.00 Ry     beta= 0.50
     Davidson diagonalization with overlap
     ethr =  1.12E-06,  avg # of iterations =  1.0

     total cpu time spent up to now is        2.8 secs

     total energy              =     -55.80218078 Ry
     estimated scf accuracy    <       0.00004758 Ry

     total magnetization       =     2.41 Bohr mag/cell
     absolute magnetization    =     2.56 Bohr mag/cell

     iteration #  3     ecut=    30.00 Ry     beta= 0.50
     Davidson diagonalization with overlap
     ethr =  5.95E-07,  avg # of iterations =  1.4

     total cpu time spent up to now is        2.9 secs

     total energy              =     -55.80222632 Ry
     estimated scf accuracy    <       0.00001442 Ry

     total magnetization       =     2.38 Bohr mag/cell
     absolute magnetization    =     2.53 Bohr mag/cell

     iteration #  4     ecut=    30.00 Ry     beta= 0.50
     Davidson diagonalization with overlap
     ethr =  1.80E-07,  avg # of iterations =  1.6

     total cpu time spent up to now is        3.0 secs

     total energy              =     -55.80223336 Ry
     estimated scf accuracy    <       0.00000223 Ry

     total magnetization       =     2.37 Bohr mag/cell
     absolute magnetization    =     2.52 Bohr mag/cell

     iteration #  5     ecut=    30.00 Ry     beta= 0.50
     Davidson diagonalization with overlap
     ethr =  2.79E-08,  avg # of iterations =  2.2

     total cpu time spent up to now is        3.1 secs

     total energy              =     -55.80223939 Ry
     estimated scf accuracy    <       0.00000011 Ry

     total magnetization       =     2.37 Bohr mag/cell
     absolute magnetization    =     2.51 Bohr mag/cell

     iteration #  6     ecut=    30.00 Ry     beta= 0.50
     Davidson diagonalization with overlap
     ethr =  1.35E-09,  avg # of iterations =  3.8

     total cpu time spent up to now is        3.2 secs

     total energy              =     -55.80223978 Ry
     estimated scf accuracy    <          4.7E-09 Ry

     total magnetization       =     2.37 Bohr mag/cell
     absolute magnetization    =     2.51 Bohr mag/cell

     iteration #  7     ecut=    30.00 Ry     beta= 0.50
     Davidson diagonalization with overlap
     ethr =  5.90E-11,  avg # of iterations =  4.9

     Magnetic moment per site  (integrated on atomic sphere of radius R)
     atom   1 (R=0.413)  charge=  6.1689  magn=  2.4109

     total cpu time spent up to now is        3.3 secs

     End of self-consistent calculation

 ------ SPIN UP ------------


          k = 0.0000 0.0000 0.0000 (   177 PWs)   bands (ev):

     4.7634  10.5970  10.5970  10.5970  11.7477  11.7477  37.3788  37.3788

          k = 0.1166 0.1166-0.0000 (   189 PWs)   bands (ev):

     5.5698  10.3946  10.5590  11.0137  11.5963  11.7665  33.3256  36.0249

          k = 0.2332 0.2332-0.0000 (   182 PWs)   bands (ev):

     7.4418   9.9595  10.6127  11.6455  11.8315  12.0421  26.7902  33.0854

          k = 0.3498 0.3498-0.0000 (   182 PWs)   bands (ev):

     8.1420   9.6283  11.7575  11.9083  12.8340  12.9905  21.1548  31.2281

          k = 0.2332 0.1166 0.1166 (   181 PWs)   bands (ev):

     6.9896  10.2016  10.2067  11.4766  11.8491  11.9414  30.0034  31.0801

          k = 0.3498 0.2332 0.1166 (   184 PWs)   bands (ev):

     8.4514   9.7818  10.5293  11.6646  12.0610  13.6068  24.0618  28.4185

          k = 0.4664 0.3498 0.1166 (   184 PWs)   bands (ev):

     8.5194   9.6472  11.1392  11.7796  12.4035  15.6483  20.0990  27.5617

          k = 0.4664 0.2332 0.2332 (   183 PWs)   bands (ev):

     9.1907   9.6568  10.2236  11.8457  12.1530  16.9672  21.9046  23.0915

          k = 0.2332 0.2332 0.2332 (   183 PWs)   bands (ev):

     8.6429   9.7558   9.7558  11.8086  11.8086  13.6191  27.4359  27.4359

          k = 0.3498 0.3498 0.2332 (   178 PWs)   bands (ev):

     9.1201   9.5438  10.4779  11.8894  11.9300  16.3767  21.9430  26.0473

          k =-0.0000-0.0000 0.2332 (   177 PWs)   bands (ev):

     6.3242  10.6487  10.6487  11.0125  11.0796  12.0164  32.7949  34.5223

          k = 0.4664 0.3498 0.3498 (   179 PWs)   bands (ev):

     9.3967   9.9297   9.9297  11.9541  11.9541  20.2559  20.2559  22.2216

          k = 0.0000-0.1166 0.3498 (   185 PWs)   bands (ev):

     8.0072  10.2308  10.3890  11.2544  11.9549  12.4886  27.3697  31.9053

          k =-0.0000-0.2332 0.4664 (   181 PWs)   bands (ev):

     8.5669  10.1090  10.3554  11.5255  12.9347  14.7199  21.5163  29.7033

          k = 0.1166-0.1166 0.4664 (   181 PWs)   bands (ev):

     9.0092   9.5409  10.5265  11.5020  12.4169  14.7029  24.8592  25.4918

          k =-0.6996-0.2332-0.2332 (   191 PWs)   bands (ev):

     9.0457   9.6741  10.1894  11.8076  12.6911  17.9573  20.4810  24.3281

          k = 0.0000 0.0000 0.4664 (   188 PWs)   bands (ev):

     8.8022   9.5709  11.2735  11.2735  11.9723  13.9637  28.1678  28.1678

          k = 0.0000-0.1166 0.5830 (   192 PWs)   bands (ev):

     8.8298   9.0522  11.3537  11.7052  12.8120  17.2477  22.7531  25.9729

          k =-0.6996-0.1166-0.1166 (   194 PWs)   bands (ev):

     8.7129   8.7129  11.4472  12.6275  12.6275  21.1557  21.1557  22.4295

          k = 0.0000 0.0000 0.6996 (   180 PWs)   bands (ev):

     8.3889   8.3924  12.5771  12.5771  12.7677  20.3850  23.5081  23.5081

 ------ SPIN DOWN ----------


          k = 0.0000 0.0000 0.0000 (   177 PWs)   bands (ev):

     4.8630  12.9088  12.9088  12.9088  14.8976  14.8976  37.0895  37.0895

          k = 0.1166 0.1166-0.0000 (   189 PWs)   bands (ev):

     5.6787  12.6536  12.8262  13.3730  14.6674  14.9208  33.6109  35.9695

          k = 0.2332 0.2332-0.0000 (   182 PWs)   bands (ev):

     7.7814  12.1134  12.5060  14.5376  14.5842  15.0134  27.5808  33.1238

          k = 0.3498 0.3498-0.0000 (   182 PWs)   bands (ev):

     9.4686  11.7087  13.1988  14.7413  15.1318  15.6444  22.4876  31.2093

          k = 0.2332 0.1166 0.1166 (   181 PWs)   bands (ev):

     7.1707  12.3646  12.3970  14.2967  14.4381  15.0634  30.5452  31.5703

          k = 0.3498 0.2332 0.1166 (   184 PWs)   bands (ev):

     9.3316  11.8483  12.1961  14.5524  15.1421  15.8690  25.0164  28.9644

          k = 0.4664 0.3498 0.1166 (   184 PWs)   bands (ev):

    10.0654  11.6778  12.6980  14.7080  15.2630  17.1511  21.5668  28.0875

          k = 0.4664 0.2332 0.2332 (   183 PWs)   bands (ev):

    10.8020  11.5186  11.9362  14.7420  15.1087  18.5139  22.9711  23.9412

          k = 0.2332 0.2332 0.2332 (   183 PWs)   bands (ev):

     9.0550  11.7829  11.7829  14.9291  14.9291  15.8909  28.0721  28.0721

          k = 0.3498 0.3498 0.2332 (   178 PWs)   bands (ev):

    10.5827  11.4624  11.8836  14.9864  15.1548  18.0064  22.9968  26.6925

          k =-0.0000-0.0000 0.2332 (   177 PWs)   bands (ev):

     6.4555  12.9030  12.9030  13.3795  13.9862  15.2060  33.0383  34.9909

          k = 0.4664 0.3498 0.3498 (   179 PWs)   bands (ev):

    11.1608  11.5524  11.5524  15.1479  15.1479  21.3481  21.3481  23.1444

          k = 0.0000-0.1166 0.3498 (   185 PWs)   bands (ev):

     8.4292  12.4839  12.5771  13.8196  14.4352  15.4547  28.1402  32.2462

          k =-0.0000-0.2332 0.4664 (   181 PWs)   bands (ev):

    10.0283  12.2060  12.2354  14.2200  15.5788  16.4780  22.7401  30.2939

          k = 0.1166-0.1166 0.4664 (   181 PWs)   bands (ev):

    10.1619  11.7273  12.6561  14.0145  15.0832  16.6900  25.7998  26.2055

          k =-0.6996-0.2332-0.2332 (   191 PWs)   bands (ev):

    10.9001  11.5736  12.2689  14.3828  15.3309  19.2017  21.7324  25.0968

          k = 0.0000 0.0000 0.4664 (   188 PWs)   bands (ev):

     9.8070  11.9962  13.5225  13.5225  14.4755  16.1730  28.8073  28.8073

          k = 0.0000-0.1166 0.5830 (   192 PWs)   bands (ev):

    10.6737  11.1568  13.6340  14.0487  15.4355  18.4902  23.6328  26.5085

          k =-0.6996-0.1166-0.1166 (   194 PWs)   bands (ev):

    10.7734  10.7734  13.6775  15.1822  15.1822  21.9945  21.9945  23.1050

          k = 0.0000 0.0000 0.6996 (   180 PWs)   bands (ev):

    10.4187  10.5072  15.1013  15.1013  15.3930  21.0090  23.8489  23.8489

     the Fermi energy is    12.9173 ev

!    total energy              =     -55.80223989 Ry
     estimated scf accuracy    <          2.7E-10 Ry
     smearing contrib. (-TS)   =       0.00009393 Ry
     internal energy E=F+TS    =     -55.80233381 Ry

     The total energy is F=E-TS. E is the sum of the following terms:
     one-electron contribution =       6.97612396 Ry
     hartree contribution      =       6.68337466 Ry
     xc contribution           =     -26.43980266 Ry
     ewald contribution        =     -43.02202977 Ry

     total magnetization       =     2.37 Bohr mag/cell
     absolute magnetization    =     2.51 Bohr mag/cell

     convergence has been achieved in   7 iterations

     Forces acting on atoms (cartesian axes, Ry/au):

     atom    1 type  1   force =     0.00000000    0.00000000    0.00000000

     Total force =     0.000000     Total SCF correction =     0.000000


     Computing stress (Cartesian axis) and pressure

          total   stress  (Ry/bohr**3)                   (kbar)     P=      -34.58
  -0.00023505   0.00000000   0.00000000          -34.58        0.00        0.00
   0.00000000  -0.00023505   0.00000000            0.00      -34.58        0.00
   0.00000000   0.00000000  -0.00023505            0.00        0.00      -34.58

     Energy error            =      7.9E-04 Ry
     Gradient error          =      0.0E+00 Ry/Bohr
     Cell gradient error     =      3.5E+01 kbar

     number of scf cycles    =   3
     number of bfgs steps    =   2

     enthalpy           old  =     -55.8014450422 Ry
     enthalpy           new  =     -55.8022398861 Ry

     CASE: enthalpy          _new < enthalpy          _old

     new trust radius        =       0.0215225973 bohr
     new conv_thr            =       0.0000000010 Ry

     new unit-cell volume =     76.49446 a.u.^3 (    11.33531 Ang^3 )
     density =      8.18088 g/cm^3

CELL_PARAMETERS (angstrom)
  -1.415113005   1.415113005   1.415113005
   1.415113005  -1.415113005   1.415113005
   1.415113005   1.415113005  -1.415113005

ATOMIC_POSITIONS (angstrom)
Fe               0.0000000000        0.0000000000        0.0000000000


     Message from routine punch:
     Nothing written, as per user request (disk_io='none')
     NEW-OLD atomic charge density approx. for the potential
     New effective cutoffs (rho, wfc):  270.51   27.26

     Check: negative core charge=   -0.000003
     Generating pointlists ...

     total cpu time spent up to now is        3.4 secs

     Self-consistent Calculation

     iteration #  1     ecut=    30.00 Ry     beta= 0.50
     Davidson diagonalization with overlap
     ethr =  1.00E-06,  avg # of iterations =  4.5

     total cpu time spent up to now is        3.5 secs

     total energy              =     -55.80229518 Ry
     estimated scf accuracy    <       0.00008690 Ry

     total magnetization       =     2.33 Bohr mag/cell
     absolute magnetization    =     2.47 Bohr mag/cell

     iteration #  2     ecut=    30.00 Ry     beta= 0.50
     Davidson diagonalization with overlap
     ethr =  1.09E-06,  avg # of iterations =  1.0

     total cpu time spent up to now is        3.6 secs

     total energy              =     -55.80232221 Ry
     estimated scf accuracy    <       0.00003844 Ry

     total magnetization       =     2.33 Bohr mag/cell
     absolute magnetization    =     2.46 Bohr mag/cell

     iteration #  3     ecut=    30.00 Ry     beta= 0.50
     Davidson diagonalization with overlap
     ethr =  4.81E-07,  avg # of iterations =  1.5

     total cpu time spent up to now is        3.7 secs

     total energy              =     -55.80233937 Ry
     estimated scf accuracy    <       0.00000246 Ry

     total magnetization       =     2.32 Bohr mag/cell
     absolute magnetization    =     2.45 Bohr mag/cell

     iteration #  4     ecut=    30.00 Ry     beta= 0.50
     Davidson diagonalization with overlap
     ethr =  3.07E-08,  avg # of iterations =  1.9

     total cpu time spent up to now is        3.8 secs

     total energy              =     -55.80234071 Ry
     estimated scf accuracy    <       0.00000036 Ry

     total magnetization       =     2.32 Bohr mag/cell
     absolute magnetization    =     2.45 Bohr mag/cell

     iteration #  5     ecut=    30.00 Ry     beta= 0.50
     Davidson diagonalization with overlap
     ethr =  4.52E-09,  avg # of iterations =  2.8

     total cpu time spent up to now is        3.9 secs

     total energy              =     -55.80234113 Ry
     estimated scf accuracy    <       0.00000006 Ry

     total magnetization       =     2.32 Bohr mag/cell
     absolute magnetization    =     2.44 Bohr mag/cell

     iteration #  6     ecut=    30.00 Ry     beta= 0.50
     Davidson diagonalization with overlap
     ethr =  8.11E-10,  avg # of iterations =  3.4

     total cpu time spent up to now is        3.9 secs

     total energy              =     -55.80234120 Ry
     estimated scf accuracy    <          7.6E-09 Ry

     total magnetization       =     2.32 Bohr mag/cell
     absolute magnetization    =     2.44 Bohr mag/cell

     iteration #  7     ecut=    30.00 Ry     beta= 0.50
     Davidson diagonalization with overlap
     ethr =  9.47E-11,  avg # of iterations =  3.7

     Magnetic moment per site  (integrated on atomic sphere of radius R)
     atom   1 (R=0.413)  charge=  6.2016  magn=  2.3570

     total cpu time spent up to now is        4.0 secs

     End of self-consistent calculation

 ------ SPIN UP ------------


          k = 0.0000 0.0000 0.0000 (   177 PWs)   bands (ev):

     5.1862  11.1735  11.1735  11.1735  12.3891  12.3891  38.3470  38.3470

          k = 0.1180 0.1180 0.0000 (   189 PWs)   bands (ev):

     6.0151  10.9582  11.1312  11.6133  12.2277  12.4092  34.3619  37.0319

          k = 0.2361 0.2361 0.0000 (   182 PWs)   bands (ev):

     7.9181  10.4967  11.1834  12.2819  12.4796  12.6998  27.8111  34.0691

          k = 0.3541 0.3541-0.0000 (   182 PWs)   bands (ev):

     8.5949  10.1461  12.4014  12.5628  13.4616  13.7040  22.1212  32.1663

          k = 0.2361 0.1180 0.1180 (   181 PWs)   bands (ev):

     7.4676  10.7499  10.7581  12.1011  12.4971  12.5938  31.0163  32.1656

          k = 0.3541 0.2361 0.1180 (   184 PWs)   bands (ev):

     8.9326  10.3071  11.0947  12.3017  12.7235  14.3301  25.0470  29.4480

          k = 0.4721 0.3541 0.1180 (   184 PWs)   bands (ev):

     8.9845  10.1656  11.7337  12.4253  13.0787  16.3898  21.0553  28.5718

          k = 0.4721 0.2361 0.2361 (   183 PWs)   bands (ev):

     9.6894  10.1725  10.7711  12.4939  12.8199  17.7767  22.8116  24.0991

          k = 0.2361 0.2361 0.2361 (   183 PWs)   bands (ev):

     9.1556  10.2792  10.2792  12.4559  12.4559  14.3489  28.4190  28.4190

          k = 0.3541 0.3541 0.2361 (   178 PWs)   bands (ev):

     9.6160  10.0565  11.0401  12.5425  12.5862  17.1743  22.8893  27.0040

          k =-0.0000-0.0000 0.2361 (   177 PWs)   bands (ev):

     6.7884  11.2260  11.2260  11.6113  11.6758  12.6765  33.7608  35.6697

          k = 0.4721 0.3541 0.3541 (   179 PWs)   bands (ev):

     9.9031  10.4630  10.4630  12.6116  12.6116  21.1223  21.1223  23.2172

          k = 0.0000-0.1180 0.3541 (   185 PWs)   bands (ev):

     8.4959  10.7759  10.9501  11.8645  12.6070  13.1731  28.3972  32.9291

          k = 0.0000-0.2361 0.4721 (   181 PWs)   bands (ev):

     9.0347  10.6535  10.9072  12.1536  13.6447  15.4490  22.4776  30.8129

          k = 0.1180-0.1180 0.4721 (   181 PWs)   bands (ev):

     9.5059  10.0453  11.0932  12.1266  13.0971  15.4578  25.8312  26.5257

          k =-0.7082-0.2361-0.2361 (   191 PWs)   bands (ev):

     9.5279  10.1879  10.7384  12.4507  13.3857  18.7659  21.4164  25.3181

          k = 0.0000 0.0000 0.4721 (   188 PWs)   bands (ev):

     9.2921  10.0739  11.8837  11.8837  12.6250  14.7003  29.2393  29.2393

          k = 0.0000-0.1180 0.5901 (   192 PWs)   bands (ev):

     9.2974   9.5303  11.9683  12.3405  13.5144  18.0559  23.7066  26.9803

          k =-0.7082-0.1180-0.1180 (   194 PWs)   bands (ev):

     9.1710   9.1710  12.0670  13.3178  13.3178  22.0396  22.0396  23.3903

          k = 0.0000 0.0000 0.7082 (   180 PWs)   bands (ev):

     8.8272   8.8333  13.2643  13.2643  13.4676  21.2491  24.4319  24.4319

 ------ SPIN DOWN ----------


          k = 0.0000 0.0000 0.0000 (   177 PWs)   bands (ev):

     5.3095  13.4209  13.4209  13.4209  15.5020  15.5020  38.0987  38.0987

          k = 0.1180 0.1180 0.0000 (   189 PWs)   bands (ev):

     6.1481  13.1535  13.3359  13.9074  15.2596  15.5263  34.6677  37.0082

          k = 0.2361 0.2361 0.0000 (   182 PWs)   bands (ev):

     8.2868  12.5888  13.0216  15.1275  15.1739  15.6242  28.6156  34.1394

          k = 0.3541 0.3541-0.0000 (   182 PWs)   bands (ev):

     9.9130  12.1664  13.8266  15.3415  15.7496  16.2875  23.4486  32.1791

          k = 0.2361 0.1180 0.1180 (   181 PWs)   bands (ev):

     7.6741  12.8540  12.8885  14.8778  15.0190  15.6779  31.5807  32.6628

          k = 0.3541 0.2361 0.1180 (   184 PWs)   bands (ev):

     9.8328  12.3179  12.7130  15.1407  15.7615  16.5353  26.0117  30.0040

          k = 0.4721 0.3541 0.1180 (   184 PWs)   bands (ev):

    10.5050  12.1384  13.2774  15.3059  15.8897  17.8803  22.5077  29.1075

          k = 0.4721 0.2361 0.2361 (   183 PWs)   bands (ev):

    11.2739  11.9971  12.4435  15.3401  15.7270  19.3055  23.8878  24.9503

          k = 0.2361 0.2361 0.2361 (   183 PWs)   bands (ev):

     9.5868  12.2514  12.2514  15.5360  15.5360  16.5574  29.0733  29.0733

          k = 0.3541 0.3541 0.2361 (   178 PWs)   bands (ev):

    11.0608  11.9208  12.4082  15.5971  15.7739  18.7737  23.9471  27.6633

          k =-0.0000-0.0000 0.2361 (   177 PWs)   bands (ev):

     6.9447  13.4168  13.4168  13.9127  14.5430  15.8289  34.0462  36.1392

          k = 0.4721 0.3541 0.3541 (   179 PWs)   bands (ev):

    11.6192  12.0468  12.0468  15.7668  15.7668  22.2154  22.2154  24.1405

          k = 0.0000-0.1180 0.3541 (   185 PWs)   bands (ev):

     8.9465  12.9853  13.0759  14.3731  15.0196  16.0994  29.1843  33.2970

          k = 0.0000-0.2361 0.4721 (   181 PWs)   bands (ev):

    10.4874  12.7191  12.7389  14.7953  16.2186  17.1920  23.7016  31.4126

          k = 0.1180-0.1180 0.4721 (   181 PWs)   bands (ev):

    10.6664  12.1949  13.1666  14.5791  15.7008  17.4152  26.7902  27.2455

          k =-0.7082-0.2361-0.2361 (   191 PWs)   bands (ev):

    11.3558  12.0676  12.7616  14.9668  15.9606  20.0177  22.6646  26.0957

          k = 0.0000 0.0000 0.4721 (   188 PWs)   bands (ev):

    10.3163  12.4618  14.0694  14.0694  15.0598  16.8789  29.8877  29.8877

          k = 0.0000-0.1180 0.5901 (   192 PWs)   bands (ev):

    11.1301  11.6000  14.1846  14.6225  16.0679  19.2991  24.5970  27.5272

          k =-0.7082-0.1180-0.1180 (   194 PWs)   bands (ev):

    11.2033  11.2033  14.2358  15.8046  15.8046  22.8942  22.8942  24.0695

          k = 0.0000 0.0000 0.7082 (   180 PWs)   bands (ev):

    10.8320  10.9138  15.7200  15.7200  16.0229  21.8874  24.7886  24.7886

     the Fermi energy is    13.5794 ev

!    total energy              =     -55.80234121 Ry
     estimated scf accuracy    <          1.4E-10 Ry
     smearing contrib. (-TS)   =       0.00018623 Ry
     internal energy E=F+TS    =     -55.80252745 Ry

     The total energy is F=E-TS. E is the sum of the following terms:
     one-electron contribution =       7.72051739 Ry
     hartree contribution      =       6.48213915 Ry
     xc contribution           =     -26.45701448 Ry
     ewald contribution        =     -43.54816950 Ry

     total magnetization       =     2.32 Bohr mag/cell
     absolute magnetization    =     2.44 Bohr mag/cell

     convergence has been achieved in   7 iterations

     Forces acting on atoms (cartesian axes, Ry/au):

     atom    1 type  1   force =     0.00000000    0.00000000    0.00000000

     Total force =     0.000000     Total SCF correction =     0.000000


     Computing stress (Cartesian axis) and pressure

          total   stress  (Ry/bohr**3)                   (kbar)     P=       29.24
   0.00019878  -0.00000000  -0.00000000           29.24       -0.00       -0.00
  -0.00000000   0.00019878  -0.00000000           -0.00       29.24       -0.00
  -0.00000000  -0.00000000   0.00019878           -0.00       -0.00       29.24

     Energy error            =      1.0E-04 Ry
     Gradient error          =      0.0E+00 Ry/Bohr
     Cell gradient error     =      2.9E+01 kbar

     number of scf cycles    =   4
     number of bfgs steps    =   3

     enthalpy           old  =     -55.8022398861 Ry
     enthalpy           new  =     -55.8023412140 Ry

     CASE: enthalpy          _new < enthalpy          _old

     new trust radius        =       0.0096729490 bohr
     new conv_thr            =       0.0000000010 Ry

     new unit-cell volume =     77.77050 a.u.^3 (    11.52440 Ang^3 )
     density =      8.04665 g/cm^3

CELL_PARAMETERS (angstrom)
  -1.422938378   1.422938378   1.422938378
   1.422938378  -1.422938378   1.422938378
   1.422938378   1.422938378  -1.422938378

ATOMIC_POSITIONS (angstrom)
Fe               0.0000000000        0.0000000000        0.0000000000


     Message from routine punch:
     Nothing written, as per user request (disk_io='none')
     NEW-OLD atomic charge density approx. for the potential
     New effective cutoffs (rho, wfc):  267.54   26.97

     Check: negative core charge=   -0.000003
     Generating pointlists ...

     total cpu time spent up to now is        4.2 secs

     Self-consistent Calculation

     iteration #  1     ecut=    30.00 Ry     beta= 0.50
     Davidson diagonalization with overlap
     ethr =  1.00E-06,  avg # of iterations =  3.9

     total cpu time spent up to now is        4.3 secs

     total energy              =     -55.80244457 Ry
     estimated scf accuracy    <       0.00001056 Ry

     total magnetization       =     2.33 Bohr mag/cell
     absolute magnetization    =     2.46 Bohr mag/cell

     iteration #  2     ecut=    30.00 Ry     beta= 0.50
     Davidson diagonalization with overlap
     ethr =  1.32E-07,  avg # of iterations =  1.2

     total cpu time spent up to now is        4.4 secs

     total energy              =     -55.80244828 Ry
     estimated scf accuracy    <       0.00000509 Ry

     total magnetization       =     2.33 Bohr mag/cell
     absolute magnetization    =     2.46 Bohr mag/cell

     iteration #  3     ecut=    30.00 Ry     beta= 0.50
     Davidson diagonalization with overlap
     ethr =  6.36E-08,  avg # of iterations =  1.5

     total cpu time spent up to now is        4.4 secs

     total energy              =     -55.80244967 Ry
     estimated scf accuracy    <       0.00000139 Ry

     total magnetization       =     2.33 Bohr mag/cell
     absolute magnetization    =     2.46 Bohr mag/cell

     iteration #  4     ecut=    30.00 Ry     beta= 0.50
     Davidson diagonalization with overlap
     ethr =  1.74E-08,  avg # of iterations =  1.6

     total cpu time spent up to now is        4.5 secs

     total energy              =     -55.80245026 Ry
     estimated scf accuracy    <       0.00000009 Ry

     total magnetization       =     2.33 Bohr mag/cell
     absolute magnetization    =     2.46 Bohr mag/cell

     iteration #  5     ecut=    30.00 Ry     beta= 0.50
     Davidson diagonalization with overlap
     ethr =  1.07E-09,  avg # of iterations =  3.1

     total cpu time spent up to now is        4.6 secs

     total energy              =     -55.80245046 Ry
     estimated scf accuracy    <       0.00000001 Ry

     total magnetization       =     2.33 Bohr mag/cell
     absolute magnetization    =     2.46 Bohr mag/cell

     iteration #  6     ecut=    30.00 Ry     beta= 0.50
     Davidson diagonalization with overlap
     ethr =  1.81E-10,  avg # of iterations =  2.8

     Magnetic moment per site  (integrated on atomic sphere of radius R)
     atom   1 (R=0.413)  charge=  6.1863  magn=  2.3735

     total cpu time spent up to now is        4.7 secs

     End of self-consistent calculation

 ------ SPIN UP ------------


          k = 0.0000 0.0000 0.0000 (   177 PWs)   bands (ev):

     4.9924  10.9131  10.9131  10.9131  12.0956  12.0956  37.9052  37.9052

          k = 0.1174 0.1174-0.0000 (   189 PWs)   bands (ev):

     5.8110  10.7037  10.8725  11.3423  11.9389  12.1150  33.8891  36.5724

          k = 0.2348 0.2348-0.0000 (   182 PWs)   bands (ev):

     7.7005  10.2542  10.9238  11.9919  12.1830  12.4021  27.3447  33.6198

          k = 0.3521 0.3521-0.0000 (   182 PWs)   bands (ev):

     8.3893   9.9125  12.1076  12.2633  13.1747  13.3807  21.6797  31.7378

          k = 0.2348 0.1174 0.1174 (   181 PWs)   bands (ev):

     7.2487  10.5017  10.5090  11.8161  12.2024  12.2967  30.5536  31.6705

          k = 0.3521 0.2348 0.1174 (   184 PWs)   bands (ev):

     8.7136  10.0697  10.8373  12.0115  12.4209  14.0012  24.5969  28.9781

          k = 0.4695 0.3521 0.1174 (   184 PWs)   bands (ev):

     8.7734   9.9315  11.4623  12.1310  12.7715  16.0510  20.6187  28.1106

          k = 0.4695 0.2348 0.2348 (   183 PWs)   bands (ev):

     9.4637   9.9381  10.5221  12.1987  12.5160  17.4070  22.3970  23.6389

          k = 0.2348 0.2348 0.2348 (   183 PWs)   bands (ev):

     8.9215  10.0425  10.0425  12.1600  12.1600  14.0175  27.9698  27.9698

          k = 0.3521 0.3521 0.2348 (   178 PWs)   bands (ev):

     9.3912   9.8249  10.7849  12.2442  12.2859  16.8106  22.4571  26.5669

          k =-0.0000-0.0000 0.2348 (   177 PWs)   bands (ev):

     6.5757  10.9652  10.9652  11.3406  11.4031  12.3744  33.3190  35.1467

          k = 0.4695 0.3521 0.3521 (   179 PWs)   bands (ev):

     9.6742  10.2213  10.2213  12.3109  12.3109  20.7265  20.7265  22.7628

          k = 0.0000-0.1174 0.3521 (   185 PWs)   bands (ev):

     8.2724  10.5274  10.6966  11.5875  12.3119  12.8598  27.9278  32.4593

          k = 0.0000-0.2348 0.4695 (   181 PWs)   bands (ev):

     8.8219  10.4076  10.6549  11.8678  13.3231  15.1153  22.0383  30.3063

          k = 0.1174-0.1174 0.4695 (   181 PWs)   bands (ev):

     9.2793   9.8154  10.8366  11.8434  12.7885  15.1127  25.3868  26.0535

          k =-0.7043-0.2348-0.2348 (   191 PWs)   bands (ev):

     9.3082   9.9532  10.4901  12.1589  13.0707  18.3959  20.9891  24.8657

          k = 0.0000 0.0000 0.4695 (   188 PWs)   bands (ev):

     9.0680   9.8441  11.6076  11.6076  12.3296  14.3631  28.7500  28.7500

          k = 0.0000-0.1174 0.5869 (   192 PWs)   bands (ev):

     9.0839   9.3119  11.6903  12.0527  13.1962  17.6860  23.2708  26.5202

          k =-0.7043-0.1174-0.1174 (   194 PWs)   bands (ev):

     8.9618   8.9618  11.7865  13.0051  13.0051  21.6352  21.6352  22.9516

          k = 0.0000 0.0000 0.7043 (   180 PWs)   bands (ev):

     8.6271   8.6320  12.9530  12.9530  13.1506  20.8540  24.0099  24.0099

 ------ SPIN DOWN ----------


          k = 0.0000 0.0000 0.0000 (   177 PWs)   bands (ev):

     5.1036  13.1786  13.1786  13.1786  15.2211  15.2211  37.6379  37.6379

          k = 0.1174 0.1174-0.0000 (   189 PWs)   bands (ev):

     5.9317  12.9170  13.0950  13.6547  14.9843  15.2449  34.1837  36.5340

          k = 0.2348 0.2348-0.0000 (   182 PWs)   bands (ev):

     8.0538  12.3639  12.7798  14.8489  14.8987  15.3402  28.1394  33.6757

          k = 0.3521 0.3521-0.0000 (   182 PWs)   bands (ev):

     9.7064  11.9499  13.5370  15.0611  15.4623  15.9839  23.0039  31.7365

          k = 0.2348 0.1174 0.1174 (   181 PWs)   bands (ev):

     7.4421  12.6227  12.6568  14.6035  14.7485  15.3922  31.1054  32.1619

          k = 0.3521 0.2348 0.1174 (   184 PWs)   bands (ev):

     9.6012  12.0965  12.4711  14.8660  15.4726  16.2227  25.5528  29.5268

          k = 0.4695 0.3521 0.1174 (   184 PWs)   bands (ev):

    10.2998  11.9208  13.0092  15.0267  15.5971  17.5403  22.0718  28.6393

          k = 0.4695 0.2348 0.2348 (   183 PWs)   bands (ev):

    11.0535  11.7735  12.2061  15.0605  15.4381  18.9374  23.4644  24.4852

          k = 0.2348 0.2348 0.2348 (   183 PWs)   bands (ev):

     9.3414  12.0306  12.0306  15.2534  15.2534  16.2439  28.6129  28.6129

          k = 0.3521 0.3521 0.2348 (   178 PWs)   bands (ev):

    10.8380  11.7046  12.1632  15.3125  15.4859  18.4157  23.5082  27.2166

          k =-0.0000-0.0000 0.2348 (   177 PWs)   bands (ev):

     6.7192  13.1739  13.1739  13.6605  14.2844  15.5393  33.5849  35.6122

          k = 0.4695 0.3521 0.3521 (   179 PWs)   bands (ev):

    11.4035  11.8153  11.8153  15.4788  15.4788  21.8139  21.8139  23.6813

          k = 0.0000-0.1174 0.3521 (   185 PWs)   bands (ev):

     8.7081  12.7508  12.8401  14.1141  14.7435  15.7998  28.7041  32.8162

          k = 0.0000-0.2348 0.4695 (   181 PWs)   bands (ev):

    10.2743  12.4905  12.4924  14.5262  15.9165  16.8611  23.2571  30.8977

          k = 0.1174-0.1174 0.4695 (   181 PWs)   bands (ev):

    10.4334  11.9772  12.9261  14.3138  15.4103  17.0781  26.3338  26.7667

          k =-0.7043-0.2348-0.2348 (   191 PWs)   bands (ev):

    11.1438  11.8390  12.5296  14.6926  15.6642  19.6403  22.2335  25.6355

          k = 0.0000 0.0000 0.4695 (   188 PWs)   bands (ev):

    10.0817  12.2460  13.8114  13.8114  14.7837  16.5515  29.3901  29.3901

          k = 0.0000-0.1174 0.5869 (   192 PWs)   bands (ev):

    10.9190  11.3946  13.9248  14.3526  15.7693  18.9254  24.1523  27.0580

          k =-0.7043-0.1174-0.1174 (   194 PWs)   bands (ev):

    11.0042  11.0042  13.9727  15.5111  15.5111  22.4795  22.4795  23.6249

          k = 0.0000 0.0000 0.7043 (   180 PWs)   bands (ev):

    10.6407  10.7254  15.4282  15.4282  15.7255  21.4830  24.3562  24.3562

     the Fermi energy is    13.2728 ev

!    total energy              =     -55.80245047 Ry
     estimated scf accuracy    <          3.2E-10 Ry
     smearing contrib. (-TS)   =       0.00014780 Ry
     internal energy E=F+TS    =     -55.80259828 Ry

     The total energy is F=E-TS. E is the sum of the following terms:
     one-electron contribution =       7.38166251 Ry
     hartree contribution      =       6.57222016 Ry
     xc contribution           =     -26.44780225 Ry
     ewald contribution        =     -43.30867869 Ry

     total magnetization       =     2.33 Bohr mag/cell
     absolute magnetization    =     2.46 Bohr mag/cell

     convergence has been achieved in   6 iterations

     Forces acting on atoms (cartesian axes, Ry/au):

     atom    1 type  1   force =     0.00000000    0.00000000    0.00000000

     Total force =     0.000000     Total SCF correction =     0.000000


     Computing stress (Cartesian axis) and pressure

          total   stress  (Ry/bohr**3)                   (kbar)     P=       -3.30
  -0.00002243   0.00000000   0.00000000           -3.30        0.00        0.00
   0.00000000  -0.00002243   0.00000000            0.00       -3.30        0.00
   0.00000000   0.00000000  -0.00002243            0.00        0.00       -3.30

     Energy error            =      1.1E-04 Ry
     Gradient error          =      0.0E+00 Ry/Bohr
     Cell gradient error     =      3.3E+00 kbar

     number of scf cycles    =   5
     number of bfgs steps    =   4

     enthalpy           old  =     -55.8023412140 Ry
     enthalpy           new  =     -55.8024504731 Ry

     CASE: enthalpy          _new < enthalpy          _old

     new trust radius        =       0.0009931043 bohr
     new conv_thr            =       0.0000000010 Ry

     new unit-cell volume =     77.63920 a.u.^3 (    11.50494 Ang^3 )
     density =      8.06026 g/cm^3

CELL_PARAMETERS (angstrom)
  -1.422137173   1.422137173   1.422137173
   1.422137173  -1.422137173   1.422137173
   1.422137173   1.422137173  -1.422137173

ATOMIC_POSITIONS (angstrom)
Fe               0.0000000000        0.0000000000        0.0000000000


     Message from routine punch:
     Nothing written, as per user request (disk_io='none')
     NEW-OLD atomic charge density approx. for the potential
     New effective cutoffs (rho, wfc):  267.84   27.00

     Check: negative core charge=   -0.000003
     Generating pointlists ...

     total cpu time spent up to now is        4.8 secs

     Self-consistent Calculation

     iteration #  1     ecut=    30.00 Ry     beta= 0.50
     Davidson diagonalization with overlap
     ethr =  1.00E-06,  avg # of iterations =  2.2

     Threshold (ethr) on eigenvalues was too large:
     Diagonalizing with lowered threshold

     Davidson diagonalization with overlap
     ethr =  1.85E-09,  avg # of iterations =  2.5

     total cpu time spent up to now is        5.0 secs

     total energy              =     -55.80245184 Ry
     estimated scf accuracy    <       0.00000014 Ry

     total magnetization       =     2.33 Bohr mag/cell
     absolute magnetization    =     2.46 Bohr mag/cell

     iteration #  2     ecut=    30.00 Ry     beta= 0.50
     Davidson diagonalization with overlap
     ethr =  1.70E-09,  avg # of iterations =  1.1

     total cpu time spent up to now is        5.1 secs

     total energy              =     -55.80245189 Ry
     estimated scf accuracy    <       0.00000006 Ry

     total magnetization       =     2.33 Bohr mag/cell
     absolute magnetization    =     2.46 Bohr mag/cell

     iteration #  3     ecut=    30.00 Ry     beta= 0.50
     Davidson diagonalization with overlap
     ethr =  8.07E-10,  avg # of iterations =  1.7

     total cpu time spent up to now is        5.1 secs

     total energy              =     -55.80245191 Ry
     estimated scf accuracy    <       0.00000002 Ry

     total magnetization       =     2.33 Bohr mag/cell
     absolute magnetization    =     2.46 Bohr mag/cell

     iteration #  4     ecut=    30.00 Ry     beta= 0.50
     Davidson diagonalization with overlap
     ethr =  1.95E-10,  avg # of iterations =  1.5

     total cpu time spent up to now is        5.2 secs

     total energy              =     -55.80245192 Ry
     estimated scf accuracy    <          1.1E-09 Ry

     total magnetization       =     2.33 Bohr mag/cell
     absolute magnetization    =     2.46 Bohr mag/cell

     iteration #  5     ecut=    30.00 Ry     beta= 0.50
     Davidson diagonalization with overlap
     ethr =  1.37E-11,  avg # of iterations =  3.0

     Magnetic moment per site  (integrated on atomic sphere of radius R)
     atom   1 (R=0.413)  charge=  6.1878  magn=  2.3714

     total cpu time spent up to now is        5.3 secs

     End of self-consistent calculation

 ------ SPIN UP ------------


          k = 0.0000 0.0000 0.0000 (   177 PWs)   bands (ev):

     5.0121  10.9396  10.9396  10.9396  12.1254  12.1254  37.9502  37.9502

          k = 0.1174 0.1174-0.0000 (   189 PWs)   bands (ev):

     5.8317  10.7296  10.8989  11.3699  11.9683  12.1449  33.9372  36.6192

          k = 0.2349 0.2349-0.0000 (   182 PWs)   bands (ev):

     7.7226  10.2789  10.9502  12.0214  12.2132  12.4324  27.3921  33.6656

          k = 0.3523 0.3523-0.0000 (   182 PWs)   bands (ev):

     8.4102   9.9363  12.1375  12.2937  13.2038  13.4136  21.7245  31.7814

          k = 0.2349 0.1174 0.1174 (   181 PWs)   bands (ev):

     7.2710  10.5270  10.5344  11.8450  12.2324  12.3269  30.6007  31.7209

          k = 0.3523 0.2349 0.1174 (   184 PWs)   bands (ev):

     8.7359  10.0939  10.8635  12.0410  12.4516  14.0346  24.6426  29.0259

          k = 0.4698 0.3523 0.1174 (   184 PWs)   bands (ev):

     8.7949   9.9554  11.4899  12.1609  12.8027  16.0854  20.6630  28.1576

          k = 0.4698 0.2349 0.2349 (   183 PWs)   bands (ev):

     9.4867   9.9620  10.5475  12.2288  12.5469  17.4446  22.4391  23.6857

          k = 0.2349 0.2349 0.2349 (   183 PWs)   bands (ev):

     8.9453  10.0667  10.0667  12.1901  12.1901  14.0512  28.0155  28.0155

          k = 0.3523 0.3523 0.2349 (   178 PWs)   bands (ev):

     9.4141   9.8486  10.8109  12.2745  12.3164  16.8476  22.5010  26.6114

          k =-0.0000-0.0000 0.2349 (   177 PWs)   bands (ev):

     6.5973  10.9917  10.9917  11.3682  11.4308  12.4051  33.3640  35.2000

          k = 0.4698 0.3523 0.3523 (   179 PWs)   bands (ev):

     9.6976  10.2460  10.2460  12.3415  12.3415  20.7667  20.7667  22.8090

          k = 0.0000-0.1174 0.3523 (   185 PWs)   bands (ev):

     8.2952  10.5527  10.7225  11.6157  12.3420  12.8916  27.9756  32.3203

          k = 0.0000-0.2349 0.4698 (   181 PWs)   bands (ev):

     8.8436  10.4327  10.6805  11.8969  13.3558  15.1492  22.0830  30.3578

          k = 0.1174-0.1174 0.4698 (   181 PWs)   bands (ev):

     9.3024   9.8388  10.8627  11.8722  12.8199  15.1478  25.4319  26.1015

          k =-0.7047-0.2349-0.2349 (   191 PWs)   bands (ev):

     9.3306   9.9771  10.5154  12.1886  13.1028  18.4334  21.0325  24.9117

          k = 0.0000 0.0000 0.4698 (   188 PWs)   bands (ev):

     9.0908   9.8675  11.6357  11.6357  12.3597  14.3973  28.7998  28.7998

          k = 0.0000-0.1174 0.5872 (   192 PWs)   bands (ev):

     9.1057   9.3341  11.7186  12.0820  13.2286  17.7236  23.3151  26.5670

          k =-0.7047-0.1174-0.1174 (   194 PWs)   bands (ev):

     8.9831   8.9831  11.8151  13.0369  13.0369  21.6763  21.6763  22.9962

          k = 0.0000 0.0000 0.7047 (   180 PWs)   bands (ev):

     8.6475   8.6525  12.9847  12.9847  13.1828  20.8941  24.0528  24.0528

 ------ SPIN DOWN ----------


          k = 0.0000 0.0000 0.0000 (   177 PWs)   bands (ev):

     5.1244  13.2028  13.2028  13.2028  15.2493  15.2493  37.6847  37.6847

          k = 0.1174 0.1174-0.0000 (   189 PWs)   bands (ev):

     5.9535  12.9407  13.1191  13.6800  15.0120  15.2731  34.2328  36.5821

          k = 0.2349 0.2349-0.0000 (   182 PWs)   bands (ev):

     8.0773  12.3864  12.8041  14.8768  14.9264  15.3687  28.1876  33.7227

          k = 0.3523 0.3523-0.0000 (   182 PWs)   bands (ev):

     9.7272  11.9715  13.5662  15.0893  15.4911  16.0143  23.0488  31.7814

          k = 0.2349 0.1174 0.1174 (   181 PWs)   bands (ev):

     7.4655  12.6459  12.6800  14.6309  14.7757  15.4209  31.1535  32.2126

          k = 0.3523 0.2349 0.1174 (   184 PWs)   bands (ev):

     9.6246  12.1187  12.4954  14.8935  15.5016  16.2541  25.5992  29.5751

          k = 0.4698 0.3523 0.1174 (   184 PWs)   bands (ev):

    10.3204  11.9426  13.0362  15.0547  15.6264  17.5744  22.1158  28.6867

          k = 0.4698 0.2349 0.2349 (   183 PWs)   bands (ev):

    11.0757  11.7960  12.2299  15.0886  15.4671  18.9745  23.5071  24.5322

          k = 0.2349 0.2349 0.2349 (   183 PWs)   bands (ev):

     9.3661  12.0527  12.0527  15.2818  15.2818  16.2753  28.6595  28.6595

          k = 0.3523 0.3523 0.2349 (   178 PWs)   bands (ev):

    10.8604  11.7263  12.1878  15.3411  15.5149  18.4517  23.5525  27.2618

          k =-0.0000-0.0000 0.2349 (   177 PWs)   bands (ev):

     6.7420  13.1983  13.1983  13.6858  14.3104  15.5684  33.6316  35.6656

          k = 0.4698 0.3523 0.3523 (   179 PWs)   bands (ev):

    11.4251  11.8386  11.8386  15.5077  15.5077  21.8543  21.8543  23.7277

          k = 0.0000-0.1174 0.3523 (   185 PWs)   bands (ev):

     8.7322  12.7744  12.8637  14.1401  14.7712  15.8299  28.7526  32.8649

          k = 0.0000-0.2349 0.4698 (   181 PWs)   bands (ev):

    10.2957  12.5134  12.5172  14.5532  15.9468  16.8944  23.3020  30.9498

          k = 0.1174-0.1174 0.4698 (   181 PWs)   bands (ev):

    10.4568  11.9991  12.9502  14.3404  15.4394  17.1120  26.3799  26.8151

          k =-0.7047-0.2349-0.2349 (   191 PWs)   bands (ev):

    11.1651  11.8620  12.5528  14.7201  15.6939  19.6783  22.2770  25.6820

          k = 0.0000 0.0000 0.4698 (   188 PWs)   bands (ev):

    10.1054  12.2677  13.8372  13.8372  14.8114  16.5844  29.4404  29.4404

          k = 0.0000-0.1174 0.5872 (   192 PWs)   bands (ev):

    10.9403  11.4153  13.9508  14.3796  15.7992  18.9631  24.1972  27.1055

          k =-0.7047-0.1174-0.1174 (   194 PWs)   bands (ev):

    11.0242  11.0242  13.9991  15.5405  15.5405  22.5213  22.5213  23.6699

          k = 0.0000 0.0000 0.7047 (   180 PWs)   bands (ev):

    10.6599  10.7443  15.4574  15.4574  15.7553  21.5239  24.3999  24.3999

     the Fermi energy is    13.3037 ev

!    total energy              =     -55.80245192 Ry
     estimated scf accuracy    <          6.2E-11 Ry
     smearing contrib. (-TS)   =       0.00015233 Ry
     internal energy E=F+TS    =     -55.80260425 Ry

     The total energy is F=E-TS. E is the sum of the following terms:
     one-electron contribution =       7.41619359 Ry
     hartree contribution      =       6.56294632 Ry
     xc contribution           =     -26.44866619 Ry
     ewald contribution        =     -43.33307797 Ry

     total magnetization       =     2.33 Bohr mag/cell
     absolute magnetization    =     2.46 Bohr mag/cell

     convergence has been achieved in   5 iterations

     Forces acting on atoms (cartesian axes, Ry/au):

     atom    1 type  1   force =     0.00000000    0.00000000    0.00000000

     Total force =     0.000000     Total SCF correction =     0.000000


     Computing stress (Cartesian axis) and pressure

          total   stress  (Ry/bohr**3)                   (kbar)     P=       -0.22
  -0.00000152  -0.00000000  -0.00000000           -0.22       -0.00       -0.00
  -0.00000000  -0.00000152  -0.00000000           -0.00       -0.22       -0.00
  -0.00000000  -0.00000000  -0.00000152           -0.00       -0.00       -0.22

     Energy error            =      1.4E-06 Ry
     Gradient error          =      0.0E+00 Ry/Bohr
     Cell gradient error     =      2.2E-01 kbar

     bfgs converged in   6 scf cycles and   5 bfgs steps
     (criteria: energy <  1.0E-04 Ry, force <  1.0E-03 Ry/Bohr, cell <  5.0E-01 kbar)

     End of BFGS Geometry Optimization

     Final enthalpy           =     -55.8024519179 Ry

     File /home/bond/Work/Lab4/1A/Fe_bcc_nk_7_relax/pwscf.bfgs deleted, as requested
Begin final coordinates
     new unit-cell volume =     77.63920 a.u.^3 (    11.50494 Ang^3 )
     density =      8.06026 g/cm^3

CELL_PARAMETERS (angstrom)
  -1.422137173   1.422137173   1.422137173
   1.422137173  -1.422137173   1.422137173
   1.422137173   1.422137173  -1.422137173

ATOMIC_POSITIONS (angstrom)
Fe               0.0000000000        0.0000000000        0.0000000000
End final coordinates


     Message from routine punch:
     Nothing written, as per user request (disk_io='none')

     Final scf calculation at the relaxed structure.
     The G-vectors are recalculated for the final unit cell
     Results may differ from those at the preceding step.

     Parallelization info
     --------------------
     sticks:   dense  smooth     PW     G-vecs:    dense   smooth      PW
     Min         241      98     33                 3408      860     184
     Max         242      99     34                 3411      861     185
     Sum         483     197     67                 6819     1721     369

     Using Slab Decomposition



     bravais-lattice index     =            0
     lattice parameter (alat)  =       4.4187  a.u.
     unit-cell volume          =      77.6392 (a.u.)^3
     number of atoms/cell      =            1
     number of atomic types    =            1
     number of electrons       =         8.00
     number of Kohn-Sham states=            8
     kinetic-energy cutoff     =      30.0000  Ry
     charge density cutoff     =     300.0000  Ry
     scf convergence threshold =      1.0E-09
     mixing beta               =       0.5000
     number of iterations used =            8  plain     mixing
     press convergence thresh. =      5.0E-01
     Exchange-correlation=  SLA  PW   PBE  PBE
                           (   1   4   3   4   0   0   0)

     celldm(1)=   4.418687  celldm(2)=   0.000000  celldm(3)=   0.000000
     celldm(4)=   0.000000  celldm(5)=   0.000000  celldm(6)=   0.000000

     crystal axes: (cart. coord. in units of alat)
               a(1) = (  -0.608201   0.608201   0.608201 )  
               a(2) = (   0.608201  -0.608201   0.608201 )  
               a(3) = (   0.608201   0.608201  -0.608201 )  

     reciprocal axes: (cart. coord. in units 2 pi/alat)
               b(1) = (  0.000000  0.822097  0.822097 )  
               b(2) = (  0.822097  0.000000  0.822097 )  
               b(3) = (  0.822097  0.822097  0.000000 )  


     PseudoPot. # 1 for Fe read from file:
     /home/bond/Software/QE/qe-7.4.1/pseudo/Fe.pbe-nd-rrkjus.UPF
     MD5 check sum: 398036227a04b607635f6f5e8dfd8242
     Pseudo is Ultrasoft + core correction, Zval =  8.0
     Generated by new atomic code, or converted to UPF format
     Using radial grid of  957 points,  6 beta functions with: 
                l(1) =   0
                l(2) =   0
                l(3) =   1
                l(4) =   1
                l(5) =   2
                l(6) =   2
     Q(r) pseudized with 0 coefficients 


     atomic species   valence    mass     pseudopotential
     Fe                8.00    55.84500     Fe( 1.00)

     Starting magnetic structure 
     atomic species   magnetization
     Fe              0.383

     48 Sym. Ops., with inversion, found



   Cartesian axes

     site n.     atom                  positions (alat units)
         1        Fe     tau(   1) = (   0.0000000   0.0000000   0.0000000  )

     number of k points=    20  Methfessel-Paxton smearing, width (Ry)=  0.0200
                       cart. coord. in units 2pi/alat
        k(    1) = (   0.0000000   0.0000000   0.0000000), wk =   0.0029155
        k(    2) = (   0.1174424   0.1174424  -0.0000000), wk =   0.0349854
        k(    3) = (   0.2348848   0.2348848  -0.0000000), wk =   0.0349854
        k(    4) = (   0.3523272   0.3523272  -0.0000000), wk =   0.0349854
        k(    5) = (   0.2348848   0.1174424   0.1174424), wk =   0.0699708
        k(    6) = (   0.3523272   0.2348848   0.1174424), wk =   0.1399417
        k(    7) = (   0.4697696   0.3523272   0.1174424), wk =   0.0699708
        k(    8) = (   0.4697696   0.2348848   0.2348848), wk =   0.0699708
        k(    9) = (   0.2348848   0.2348848   0.2348848), wk =   0.0233236
        k(   10) = (   0.3523272   0.3523272   0.2348848), wk =   0.0699708
        k(   11) = (  -0.0000000  -0.0000000   0.2348848), wk =   0.0174927
        k(   12) = (   0.4697696   0.3523272   0.3523272), wk =   0.0233236
        k(   13) = (   0.0000000  -0.1174424   0.3523272), wk =   0.0699708
        k(   14) = (   0.0000000  -0.2348848   0.4697696), wk =   0.0699708
        k(   15) = (   0.1174424  -0.1174424   0.4697696), wk =   0.0699708
        k(   16) = (  -0.7046543  -0.2348848  -0.2348848), wk =   0.0699708
        k(   17) = (   0.0000000   0.0000000   0.4697696), wk =   0.0174927
        k(   18) = (   0.0000000  -0.1174424   0.5872119), wk =   0.0699708
        k(   19) = (  -0.7046543  -0.1174424  -0.1174424), wk =   0.0233236
        k(   20) = (   0.0000000   0.0000000   0.7046543), wk =   0.0174927

     Dense  grid:     6819 G-vectors     FFT dimensions: (  25,  25,  25)

     Smooth grid:     1721 G-vectors     FFT dimensions: (  18,  18,  18)

     Estimated max dynamical RAM per process >      17.22 MB

     Estimated total dynamical RAM >      34.43 MB

     Check: negative core charge=   -0.000005
     Generating pointlists ...

     Initial potential from superposition of free atoms

     starting charge       7.9994, renormalised to       8.0000
     Starting wfcs are    6 randomized atomic wfcs +    2 random wfcs

     total cpu time spent up to now is        5.6 secs

     Self-consistent Calculation

     iteration #  1     ecut=    30.00 Ry     beta= 0.50
     Davidson diagonalization with overlap
     c_bands:  1 eigenvalues not converged
     c_bands:  1 eigenvalues not converged
     c_bands:  1 eigenvalues not converged
     c_bands:  1 eigenvalues not converged
     c_bands:  1 eigenvalues not converged
     c_bands:  1 eigenvalues not converged
     c_bands:  1 eigenvalues not converged
     c_bands:  1 eigenvalues not converged
     ethr =  1.00E-06,  avg # of iterations = 17.3

     total cpu time spent up to now is        6.0 secs

     total energy              =     -55.67612227 Ry
     estimated scf accuracy    <       0.35564153 Ry

     total magnetization       =     2.26 Bohr mag/cell
     absolute magnetization    =     2.26 Bohr mag/cell

     iteration #  2     ecut=    30.00 Ry     beta= 0.50
     Davidson diagonalization with overlap
     ethr =  4.45E-03,  avg # of iterations =  1.9

     total cpu time spent up to now is        6.1 secs

     total energy              =     -55.78028283 Ry
     estimated scf accuracy    <       0.09454803 Ry

     total magnetization       =     2.46 Bohr mag/cell
     absolute magnetization    =     2.48 Bohr mag/cell

     iteration #  3     ecut=    30.00 Ry     beta= 0.50
     Davidson diagonalization with overlap
     ethr =  1.18E-03,  avg # of iterations =  1.0

     total cpu time spent up to now is        6.2 secs

     total energy              =     -55.80111275 Ry
     estimated scf accuracy    <       0.00168881 Ry

     total magnetization       =     2.36 Bohr mag/cell
     absolute magnetization    =     2.39 Bohr mag/cell

     iteration #  4     ecut=    30.00 Ry     beta= 0.50
     Davidson diagonalization with overlap
     ethr =  2.11E-05,  avg # of iterations =  2.1

     total cpu time spent up to now is        6.4 secs

     total energy              =     -55.80294852 Ry
     estimated scf accuracy    <       0.00014054 Ry

     total magnetization       =     2.33 Bohr mag/cell
     absolute magnetization    =     2.43 Bohr mag/cell

     iteration #  5     ecut=    30.00 Ry     beta= 0.50
     Davidson diagonalization with overlap
     ethr =  1.76E-06,  avg # of iterations =  2.9

     total cpu time spent up to now is        6.5 secs

     total energy              =     -55.80302071 Ry
     estimated scf accuracy    <       0.00002221 Ry

     total magnetization       =     2.32 Bohr mag/cell
     absolute magnetization    =     2.45 Bohr mag/cell

     iteration #  6     ecut=    30.00 Ry     beta= 0.50
     Davidson diagonalization with overlap
     ethr =  2.78E-07,  avg # of iterations =  3.3

     total cpu time spent up to now is        6.6 secs

     total energy              =     -55.80304106 Ry
     estimated scf accuracy    <       0.00000620 Ry

     total magnetization       =     2.33 Bohr mag/cell
     absolute magnetization    =     2.46 Bohr mag/cell

     iteration #  7     ecut=    30.00 Ry     beta= 0.50
     Davidson diagonalization with overlap
     ethr =  7.76E-08,  avg # of iterations =  3.1

     total cpu time spent up to now is        6.8 secs

     total energy              =     -55.80304436 Ry
     estimated scf accuracy    <       0.00001141 Ry

     total magnetization       =     2.33 Bohr mag/cell
     absolute magnetization    =     2.46 Bohr mag/cell

     iteration #  8     ecut=    30.00 Ry     beta= 0.50
     Davidson diagonalization with overlap
     ethr =  7.76E-08,  avg # of iterations =  1.5

     total cpu time spent up to now is        6.9 secs

     total energy              =     -55.80304636 Ry
     estimated scf accuracy    <       0.00000005 Ry

     total magnetization       =     2.33 Bohr mag/cell
     absolute magnetization    =     2.46 Bohr mag/cell

     iteration #  9     ecut=    30.00 Ry     beta= 0.50
     Davidson diagonalization with overlap
     ethr =  6.26E-10,  avg # of iterations =  6.5

     total cpu time spent up to now is        7.1 secs

     total energy              =     -55.80304660 Ry
     estimated scf accuracy    <       0.00000005 Ry

     total magnetization       =     2.33 Bohr mag/cell
     absolute magnetization    =     2.46 Bohr mag/cell

     iteration # 10     ecut=    30.00 Ry     beta= 0.50
     Davidson diagonalization with overlap
     ethr =  5.96E-10,  avg # of iterations =  1.2

     Magnetic moment per site  (integrated on atomic sphere of radius R)
     atom   1 (R=0.413)  charge=  6.1884  magn=  2.3719

     total cpu time spent up to now is        7.2 secs

     End of self-consistent calculation

 ------ SPIN UP ------------


          k = 0.0000 0.0000 0.0000 (   201 PWs)   bands (ev):

     5.0136  10.9381  10.9381  10.9381  12.1236  12.1236  37.9494  37.9494

          k = 0.1174 0.1174-0.0000 (   211 PWs)   bands (ev):

     5.8333  10.7276  10.8970  11.3678  11.9665  12.1430  33.9366  36.6193

          k = 0.2349 0.2349-0.0000 (   211 PWs)   bands (ev):

     7.7234  10.2770  10.9492  12.0194  12.2111  12.4302  27.3921  33.6660

          k = 0.3523 0.3523-0.0000 (   206 PWs)   bands (ev):

     8.4097   9.9346  12.1357  12.2915  13.2048  13.4113  21.7244  31.7828

          k = 0.2349 0.1174 0.1174 (   214 PWs)   bands (ev):

     7.2722  10.5250  10.5323  11.8430  12.2301  12.3249  30.5994  31.7204

          k = 0.3523 0.2349 0.1174 (   213 PWs)   bands (ev):

     8.7357  10.0921  10.8625  12.0390  12.4495  14.0332  24.6428  29.0262

          k = 0.4698 0.3523 0.1174 (   213 PWs)   bands (ev):

     8.7943   9.9537  11.4887  12.1588  12.8007  16.0854  20.6628  28.1577

          k = 0.4698 0.2349 0.2349 (   219 PWs)   bands (ev):

     9.4855   9.9604  10.5461  12.2267  12.5446  17.4444  22.4390  23.6865

          k = 0.2349 0.2349 0.2349 (   216 PWs)   bands (ev):

     8.9459  10.0648  10.0648  12.1879  12.1879  14.0493  28.0151  28.0151

          k = 0.3523 0.3523 0.2349 (   214 PWs)   bands (ev):

     9.4131   9.8468  10.8101  12.2722  12.3140  16.8471  22.5009  26.6111

          k =-0.0000-0.0000 0.2349 (   213 PWs)   bands (ev):

     6.5987  10.9895  10.9895  11.3659  11.4291  12.4031  33.3610  35.1951

          k = 0.4698 0.3523 0.3523 (   222 PWs)   bands (ev):

     9.6956  10.2446  10.2446  12.3389  12.3389  20.7665  20.7665  22.8097

          k = 0.0000-0.1174 0.3523 (   221 PWs)   bands (ev):

     8.2957  10.5510  10.7202  11.6136  12.3396  12.8897  27.9749  32.5089

          k = 0.0000-0.2349 0.4698 (   217 PWs)   bands (ev):

     8.8427  10.4306  10.6794  11.8948  13.3533  15.1493  22.0828  30.3585

          k = 0.1174-0.1174 0.4698 (   217 PWs)   bands (ev):

     9.3020   9.8372  10.8606  11.8702  12.8176  15.1474  25.4315  26.1018

          k =-0.7047-0.2349-0.2349 (   214 PWs)   bands (ev):

     9.3297   9.9763  10.5135  12.1866  13.1006  18.4338  21.0327  24.9122

          k = 0.0000 0.0000 0.4698 (   217 PWs)   bands (ev):

     9.0906   9.8663  11.6336  11.6336  12.3576  14.3969  28.8003  28.8003

          k = 0.0000-0.1174 0.5872 (   218 PWs)   bands (ev):

     9.1048   9.3331  11.7167  12.0799  13.2262  17.7241  23.3155  26.5679

          k =-0.7047-0.1174-0.1174 (   224 PWs)   bands (ev):

     8.9819   8.9819  11.8130  13.0346  13.0346  21.6770  21.6770  22.9972

          k = 0.0000 0.0000 0.7047 (   228 PWs)   bands (ev):

     8.6456   8.6513  12.9823  12.9823  13.1801  20.8951  24.0542  24.0542

 ------ SPIN DOWN ----------


          k = 0.0000 0.0000 0.0000 (   201 PWs)   bands (ev):

     5.1259  13.2020  13.2020  13.2020  15.2475  15.2475  37.6840  37.6840

          k = 0.1174 0.1174-0.0000 (   211 PWs)   bands (ev):

     5.9551  12.9394  13.1179  13.6785  15.0103  15.2712  34.2321  36.5823

          k = 0.2349 0.2349-0.0000 (   211 PWs)   bands (ev):

     8.0786  12.3852  12.8031  14.8751  14.9245  15.3665  28.1875  33.7232

          k = 0.3523 0.3523-0.0000 (   206 PWs)   bands (ev):

     9.7274  11.9706  13.5670  15.0877  15.4887  16.0127  23.0487  31.7825

          k = 0.2349 0.1174 0.1174 (   214 PWs)   bands (ev):

     7.4669  12.6444  12.6785  14.6292  14.7738  15.4186  31.1523  32.2123

          k = 0.3523 0.2349 0.1174 (   213 PWs)   bands (ev):

     9.6253  12.1174  12.4945  14.8918  15.4994  16.2525  25.5993  29.5754

          k = 0.4698 0.3523 0.1174 (   213 PWs)   bands (ev):

    10.3204  11.9415  13.0365  15.0526  15.6241  17.5735  22.1156  28.6870

          k = 0.4698 0.2349 0.2349 (   219 PWs)   bands (ev):

    11.0754  11.7948  12.2289  15.0867  15.4646  18.9738  23.5068  24.5332

          k = 0.2349 0.2349 0.2349 (   216 PWs)   bands (ev):

     9.3672  12.0514  12.0514  15.2795  15.2795  16.2735  28.6591  28.6591

          k = 0.3523 0.3523 0.2349 (   214 PWs)   bands (ev):

    10.8603  11.7250  12.1874  15.3388  15.5121  18.4509  23.5526  27.2615

          k =-0.0000-0.0000 0.2349 (   213 PWs)   bands (ev):

     6.7434  13.1966  13.1966  13.6839  14.3087  15.5663  33.6290  35.6616

          k = 0.4698 0.3523 0.3523 (   222 PWs)   bands (ev):

    11.4236  11.8377  11.8377  15.5048  15.5048  21.8540  21.8540  23.7287

          k = 0.0000-0.1174 0.3523 (   221 PWs)   bands (ev):

     8.7332  12.7728  12.8620  14.1383  14.7693  15.8272  28.7520  32.8646

          k = 0.0000-0.2349 0.4698 (   217 PWs)   bands (ev):

    10.2955  12.5119  12.5167  14.5513  15.9447  16.8933  23.3019  30.9507

          k = 0.1174-0.1174 0.4698 (   217 PWs)   bands (ev):

    10.4572  11.9976  12.9486  14.3389  15.4375  17.1108  26.3794  26.8157

          k =-0.7047-0.2349-0.2349 (   214 PWs)   bands (ev):

    11.1647  11.8617  12.5514  14.7186  15.6923  19.6783  22.2772  25.6827

          k = 0.0000 0.0000 0.4698 (   217 PWs)   bands (ev):

    10.1058  12.2666  13.8358  13.8358  14.8098  16.5831  29.4410  29.4410

          k = 0.0000-0.1174 0.5872 (   218 PWs)   bands (ev):

    10.9401  11.4141  13.9496  14.3782  15.7972  18.9633  24.1978  27.1065

          k =-0.7047-0.1174-0.1174 (   224 PWs)   bands (ev):

    11.0231  11.0231  13.9977  15.5387  15.5387  22.5220  22.5220  23.6711

          k = 0.0000 0.0000 0.7047 (   228 PWs)   bands (ev):

    10.6586  10.7421  15.4555  15.4555  15.7529  21.5249  24.4013  24.4013

     the Fermi energy is    13.3018 ev

!    total energy              =     -55.80304662 Ry
     estimated scf accuracy    <          9.1E-11 Ry
     smearing contrib. (-TS)   =       0.00015034 Ry
     internal energy E=F+TS    =     -55.80319696 Ry

     The total energy is F=E-TS. E is the sum of the following terms:
     one-electron contribution =       7.41541778 Ry
     hartree contribution      =       6.56252798 Ry
     xc contribution           =     -26.44806476 Ry
     ewald contribution        =     -43.33307797 Ry

     total magnetization       =     2.33 Bohr mag/cell
     absolute magnetization    =     2.46 Bohr mag/cell

     convergence has been achieved in  10 iterations

     Forces acting on atoms (cartesian axes, Ry/au):

     atom    1 type  1   force =     0.00000000    0.00000000    0.00000000

     Total force =     0.000000     Total SCF correction =     0.000000


     Computing stress (Cartesian axis) and pressure

          total   stress  (Ry/bohr**3)                   (kbar)     P=       -0.33
  -0.00000223   0.00000000  -0.00000000           -0.33        0.00       -0.00
   0.00000000  -0.00000223  -0.00000000            0.00       -0.33       -0.00
  -0.00000000  -0.00000000  -0.00000223           -0.00       -0.00       -0.33

     Message from routine punch:
     Nothing written, as per user request (disk_io='none')

     init_run     :      0.49s CPU      0.50s WALL (       2 calls)
     electrons    :      5.07s CPU      5.64s WALL (       7 calls)
     update_pot   :      0.04s CPU      0.04s WALL (       5 calls)
     forces       :      0.15s CPU      0.15s WALL (       7 calls)
     stress       :      0.81s CPU      0.82s WALL (       7 calls)

     Called by init_run:
     wfcinit      :      0.04s CPU      0.05s WALL (       2 calls)
     potinit      :      0.14s CPU      0.14s WALL (       2 calls)
     hinit0       :      0.28s CPU      0.28s WALL (       2 calls)

     Called by electrons:
     c_bands      :      2.90s CPU      3.38s WALL (      56 calls)
     sum_band     :      1.30s CPU      1.37s WALL (      56 calls)
     v_of_rho     :      0.38s CPU      0.39s WALL (      62 calls)
     newd         :      0.53s CPU      0.54s WALL (      62 calls)
     mix_rho      :      0.03s CPU      0.03s WALL (      56 calls)

     Called by c_bands:
     init_us_2    :      0.10s CPU      0.12s WALL (    5120 calls)
     cegterg      :      2.69s CPU      3.12s WALL (    2240 calls)

     Called by *egterg:
     cdiaghg      :      0.42s CPU      0.49s WALL (    8230 calls)
     h_psi        :      1.89s CPU      2.19s WALL (    8550 calls)
     s_psi        :      0.04s CPU      0.04s WALL (    8550 calls)
     g_psi        :      0.02s CPU      0.02s WALL (    6230 calls)

     Called by h_psi:
     h_psi:calbec :      0.11s CPU      0.12s WALL (    8550 calls)
     vloc_psi     :      1.69s CPU      1.97s WALL (    8550 calls)
     add_vuspsi   :      0.04s CPU      0.05s WALL (    8550 calls)

     General routines
     calbec       :      0.17s CPU      0.20s WALL (   15550 calls)
     fft          :      0.19s CPU      0.20s WALL (    1823 calls)
     ffts         :      0.11s CPU      0.11s WALL (     236 calls)
     fftw         :      1.65s CPU      1.90s WALL (  117100 calls)
     interpolate  :      0.12s CPU      0.12s WALL (     124 calls)

     Parallel routines

     PWSCF        :      6.73s CPU      7.33s WALL


   This run was terminated on:  17:53:11  20Oct2025            

=------------------------------------------------------------------------------=
   JOB DONE.
=------------------------------------------------------------------------------=
