
     Program PWSCF v.7.4.1 starts on  8Oct2025 at 21:38: 9 

     This program is part of the open-source Quantum ESPRESSO suite
     for quantum simulation of materials; please cite
         "P. Giannozzi et al., J. Phys.:Condens. Matter 21 395502 (2009);
         "P. Giannozzi et al., J. Phys.:Condens. Matter 29 465901 (2017);
         "P. Giannozzi et al., J. Chem. Phys. 152 154105 (2020);
          URL http://www.quantum-espresso.org", 
     in publications or presentations arising from this work. More details at
     http://www.quantum-espresso.org/quote

     Parallel version (MPI), running on     1 processors

     MPI processes distributed on     1 nodes
     696 MiB available memory on the printing compute node when the environment starts

     Waiting for input...
     Reading input from standard input
Warning: card &CELL ignored
Warning: card / ignored

     Current dimensions of program PWSCF are:
     Max number of different atomic species (ntypx) = 10
     Max number of k-points (npk) =  40000
     Max angular momentum in pseudopotentials (lmaxx) =  4
     Message from routine setup:
     using ibrav=0 with symmetry is DISCOURAGED, use correct ibrav instead

     Subspace diagonalization in iterative solution of the eigenvalue problem:
     a serial algorithm will be used


     G-vector sticks info
     --------------------
     sticks:   dense  smooth     PW     G-vecs:    dense   smooth      PW
     Sum         511     511    163                 7799     7799    1411

     Using Slab Decomposition



     bravais-lattice index     =            0
     lattice parameter (alat)  =       7.3226  a.u.
     unit-cell volume          =     277.6376 (a.u.)^3
     number of atoms/cell      =            2
     number of atomic types    =            1
     number of electrons       =        28.00
     number of Kohn-Sham states=           14
     kinetic-energy cutoff     =      35.0000  Ry
     charge density cutoff     =     140.0000  Ry
     scf convergence threshold =      1.0E-07
     mixing beta               =       0.5000
     number of iterations used =            8  plain     mixing
     Exchange-correlation=  SLA  PZ   NOGX NOGC
                           (   1   1   0   0   0   0   0)

     celldm(1)=   7.322585  celldm(2)=   0.000000  celldm(3)=   0.000000
     celldm(4)=   0.000000  celldm(5)=   0.000000  celldm(6)=   0.000000

     crystal axes: (cart. coord. in units of alat)
               a(1) = (   0.000000   0.707107   0.707107 )  
               a(2) = (   0.707107   0.000000   0.707107 )  
               a(3) = (   0.707107   0.707107   0.000000 )  

     reciprocal axes: (cart. coord. in units 2 pi/alat)
               b(1) = ( -0.707107  0.707107  0.707107 )  
               b(2) = (  0.707107 -0.707107  0.707107 )  
               b(3) = (  0.707107  0.707107 -0.707107 )  


     PseudoPot. # 1 for Ge read from file:
     /home/bond/Software/QE/qe-7.4.1/pseudo/ge_lda_v1.4.uspp.F.UPF
     MD5 check sum: bf9d52b59cc8a669818bb2b52e0c2ba0
     Pseudo is Ultrasoft + core correction, Zval = 14.0
     Generated by new atomic code, or converted to UPF format
     Using radial grid of  873 points,  6 beta functions with: 
                l(1) =   0
                l(2) =   0
                l(3) =   1
                l(4) =   1
                l(5) =   2
                l(6) =   2
     Q(r) pseudized with  8 coefficients,  rinner =    1.400   1.400   1.400
                                                       1.400   1.400

     atomic species   valence    mass     pseudopotential
     Ge               14.00    72.63000     Ge( 1.00)

     48 Sym. Ops., with inversion, found (24 have fractional translation)



   Cartesian axes

     site n.     atom                  positions (alat units)
         1        Ge     tau(   1) = (   0.0000000   0.0000000   0.0000000  )
         2        Ge     tau(   2) = (   0.3535534   0.3535534   0.3535534  )

     number of k points=    47
                       cart. coord. in units 2pi/alat
        k(    1) = (   0.0000000   0.0000000   0.0000000), wk =   0.0020000
        k(    2) = (   0.0707107   0.0707107  -0.0707107), wk =   0.0160000
        k(    3) = (   0.1414214   0.1414214  -0.1414214), wk =   0.0160000
        k(    4) = (   0.2121320   0.2121320  -0.2121320), wk =   0.0160000
        k(    5) = (   0.2828427   0.2828427  -0.2828427), wk =   0.0160000
        k(    6) = (  -0.3535534  -0.3535534   0.3535534), wk =   0.0080000
        k(    7) = (   0.1414214   0.0000000   0.0000000), wk =   0.0120000
        k(    8) = (   0.2121320   0.0707107  -0.0707107), wk =   0.0480000
        k(    9) = (   0.2828427   0.1414214  -0.1414214), wk =   0.0480000
        k(   10) = (   0.3535534   0.2121320  -0.2121320), wk =   0.0480000
        k(   11) = (  -0.2828427  -0.4242641   0.4242641), wk =   0.0480000
        k(   12) = (  -0.2121320  -0.3535534   0.3535534), wk =   0.0480000
        k(   13) = (  -0.1414214  -0.2828427   0.2828427), wk =   0.0480000
        k(   14) = (  -0.0707107  -0.2121320   0.2121320), wk =   0.0480000
        k(   15) = (   0.0000000  -0.1414214   0.1414214), wk =   0.0240000
        k(   16) = (   0.2828427   0.0000000   0.0000000), wk =   0.0120000
        k(   17) = (   0.3535534   0.0707107  -0.0707107), wk =   0.0480000
        k(   18) = (   0.4242641   0.1414214  -0.1414214), wk =   0.0480000
        k(   19) = (  -0.2121320  -0.4949747   0.4949747), wk =   0.0480000
        k(   20) = (  -0.1414214  -0.4242641   0.4242641), wk =   0.0480000
        k(   21) = (  -0.0707107  -0.3535534   0.3535534), wk =   0.0480000
        k(   22) = (   0.0000000  -0.2828427   0.2828427), wk =   0.0240000
        k(   23) = (   0.4242641   0.0000000   0.0000000), wk =   0.0120000
        k(   24) = (   0.4949747   0.0707107  -0.0707107), wk =   0.0480000
        k(   25) = (  -0.1414214  -0.5656854   0.5656854), wk =   0.0480000
        k(   26) = (  -0.0707107  -0.4949747   0.4949747), wk =   0.0480000
        k(   27) = (  -0.0000000  -0.4242641   0.4242641), wk =   0.0240000
        k(   28) = (   0.5656854   0.0000000   0.0000000), wk =   0.0120000
        k(   29) = (  -0.0707107  -0.6363961   0.6363961), wk =   0.0480000
        k(   30) = (   0.0000000  -0.5656854   0.5656854), wk =   0.0240000
        k(   31) = (  -0.7071068   0.0000000   0.0000000), wk =   0.0060000
        k(   32) = (   0.2828427   0.1414214   0.0000000), wk =   0.0480000
        k(   33) = (   0.3535534   0.2121320  -0.0707107), wk =   0.0960000
        k(   34) = (  -0.2828427  -0.4242641   0.5656854), wk =   0.0960000
        k(   35) = (  -0.2121320  -0.3535534   0.4949747), wk =   0.0480000
        k(   36) = (   0.4242641   0.1414214  -0.0000000), wk =   0.0480000
        k(   37) = (  -0.2121320  -0.4949747   0.6363961), wk =   0.0960000
        k(   38) = (  -0.1414214  -0.4242641   0.5656854), wk =   0.0960000
        k(   39) = (  -0.0707107  -0.3535534   0.4949747), wk =   0.0960000
        k(   40) = (   0.0000000  -0.2828427   0.4242641), wk =   0.0480000
        k(   41) = (  -0.1414214  -0.5656854   0.7071068), wk =   0.0480000
        k(   42) = (  -0.0707107  -0.4949747   0.6363961), wk =   0.0960000
        k(   43) = (  -0.0000000  -0.4242641   0.5656854), wk =   0.0480000
        k(   44) = (  -0.7071068   0.1414214   0.0000000), wk =   0.0240000
        k(   45) = (  -0.1414214  -0.4242641   0.7071068), wk =   0.0480000
        k(   46) = (  -0.0707107  -0.3535534   0.6363961), wk =   0.0480000
        k(   47) = (  -0.7071068   0.2828427   0.0000000), wk =   0.0240000

     Dense  grid:     7799 G-vectors     FFT dimensions: (  32,  32,  32)

     Estimated max dynamical RAM per process >      40.85 MB

     Check: negative core charge=   -0.000014

     Initial potential from superposition of free atoms

     starting charge      27.9986, renormalised to      28.0000
     Starting wfcs are   18 randomized atomic wfcs

     total cpu time spent up to now is        1.0 secs

     Self-consistent Calculation

     iteration #  1     ecut=    35.00 Ry     beta= 0.50
     Davidson diagonalization with overlap
     ethr =  1.00E-02,  avg # of iterations =  1.9

     Threshold (ethr) on eigenvalues was too large:
     Diagonalizing with lowered threshold

     Davidson diagonalization with overlap
     ethr =  1.37E-04,  avg # of iterations =  1.9

     total cpu time spent up to now is        2.6 secs

     total energy              =    -426.16554891 Ry
     estimated scf accuracy    <       0.04024974 Ry

     iteration #  2     ecut=    35.00 Ry     beta= 0.50
     Davidson diagonalization with overlap
     ethr =  1.44E-04,  avg # of iterations =  1.1

     total cpu time spent up to now is        3.4 secs

     total energy              =    -426.16408362 Ry
     estimated scf accuracy    <       0.00680712 Ry

     iteration #  3     ecut=    35.00 Ry     beta= 0.50
     Davidson diagonalization with overlap
     ethr =  2.43E-05,  avg # of iterations =  2.0

     total cpu time spent up to now is        4.2 secs

     total energy              =    -426.16463926 Ry
     estimated scf accuracy    <       0.00007594 Ry

     iteration #  4     ecut=    35.00 Ry     beta= 0.50
     Davidson diagonalization with overlap
     ethr =  2.71E-07,  avg # of iterations =  3.4

     total cpu time spent up to now is        5.3 secs

     total energy              =    -426.16466332 Ry
     estimated scf accuracy    <       0.00000274 Ry

     iteration #  5     ecut=    35.00 Ry     beta= 0.50
     Davidson diagonalization with overlap
     ethr =  9.79E-09,  avg # of iterations =  3.6

     total cpu time spent up to now is        6.4 secs

     total energy              =    -426.16466426 Ry
     estimated scf accuracy    <       0.00000018 Ry

     iteration #  6     ecut=    35.00 Ry     beta= 0.50
     Davidson diagonalization with overlap
     ethr =  6.58E-10,  avg # of iterations =  2.9

     total cpu time spent up to now is        7.5 secs

     End of self-consistent calculation

          k = 0.0000 0.0000 0.0000 (   941 PWs)   bands (ev):

   -15.5940 -15.5940 -15.5940 -15.5501 -15.5501 -15.2813 -15.2813 -15.2813
   -15.2572 -15.2572  -4.1133   9.4733   9.4733   9.4733

          k = 0.0707 0.0707-0.0707 (   950 PWs)   bands (ev):

   -15.6021 -15.6021 -15.5924 -15.5394 -15.5394 -15.2906 -15.2906 -15.2836
   -15.2495 -15.2495  -3.9798   7.6847   9.2094   9.2094

          k = 0.1414 0.1414-0.1414 (   956 PWs)   bands (ev):

   -15.6134 -15.6134 -15.5875 -15.5207 -15.5207 -15.3046 -15.3046 -15.2904
   -15.2385 -15.2385  -3.5858   5.5510   8.7164   8.7164

          k = 0.2121 0.2121-0.2121 (   968 PWs)   bands (ev):

   -15.6212 -15.6212 -15.5808 -15.5061 -15.5061 -15.3146 -15.3146 -15.2986
   -15.2314 -15.2314  -2.9606   3.6104   8.2847   8.2847

          k = 0.2828 0.2828-0.2828 (   966 PWs)   bands (ev):

   -15.6247 -15.6247 -15.5746 -15.4980 -15.4980 -15.3188 -15.3188 -15.3051
   -15.2278 -15.2278  -2.2135   2.0530   8.0083   8.0083

          k =-0.3536-0.3536 0.3536 (   978 PWs)   bands (ev):

   -15.6255 -15.6255 -15.5729 -15.4964 -15.4964 -15.3198 -15.3198 -15.3081
   -15.2272 -15.2272  -1.7793   1.3457   7.9142   7.9142

          k = 0.1414 0.0000 0.0000 (   953 PWs)   bands (ev):

   -15.6031 -15.5991 -15.5991 -15.5425 -15.5284 -15.3122 -15.2736 -15.2736
   -15.2643 -15.2428  -3.9350   7.7231   8.7536   8.7536

          k = 0.2121 0.0707-0.0707 (   963 PWs)   bands (ev):

   -15.6154 -15.6075 -15.5944 -15.5291 -15.5081 -15.3331 -15.2853 -15.2737
   -15.2539 -15.2340  -3.6264   6.0799   8.2223   8.2935

          k = 0.2828 0.1414-0.1414 (   964 PWs)   bands (ev):

   -15.6276 -15.6163 -15.5827 -15.5124 -15.4908 -15.3470 -15.3003 -15.2843
   -15.2413 -15.2238  -3.0729   4.1893   7.7301   7.8233

          k = 0.3536 0.2121-0.2121 (   972 PWs)   bands (ev):

   -15.6348 -15.6228 -15.5699 -15.4991 -15.4834 -15.3491 -15.3133 -15.2993
   -15.2316 -15.2167  -2.3428   2.5278   7.2399   7.6253

          k =-0.2828-0.4243 0.4243 (   968 PWs)   bands (ev):

   -15.6368 -15.6272 -15.5605 -15.4891 -15.4865 -15.3392 -15.3247 -15.3122
   -15.2245 -15.2149  -1.7175   1.4682   6.9147   7.6445

          k =-0.2121-0.3536 0.3536 (   971 PWs)   bands (ev):

   -15.6346 -15.6299 -15.5593 -15.4954 -15.4836 -15.3340 -15.3213 -15.3193
   -15.2203 -15.2190  -1.8776   1.7178   6.7920   7.8715

          k =-0.1414-0.2828 0.2828 (   967 PWs)   bands (ev):

   -15.6294 -15.6277 -15.5680 -15.5055 -15.4864 -15.3359 -15.3202 -15.2994
   -15.2292 -15.2201  -2.5992   3.0456   6.8989   8.2742

          k =-0.0707-0.2121 0.2121 (   963 PWs)   bands (ev):

   -15.6244 -15.6166 -15.5806 -15.5180 -15.5003 -15.3273 -15.3139 -15.2782
   -15.2448 -15.2249  -3.2840   4.7957   7.2714   8.7812

          k = 0.0000-0.1414 0.1414 (   955 PWs)   bands (ev):

   -15.6137 -15.6045 -15.5916 -15.5320 -15.5208 -15.3103 -15.3017 -15.2661
   -15.2595 -15.2350  -3.7589   6.5573   8.0424   9.2111

          k = 0.2828 0.0000 0.0000 (   966 PWs)   bands (ev):

   -15.6106 -15.6106 -15.6080 -15.5207 -15.4852 -15.3637 -15.2841 -15.2551
   -15.2551 -15.2380  -3.4032   5.7010   7.6639   7.6639

          k = 0.3536 0.0707-0.0707 (   978 PWs)   bands (ev):

   -15.6270 -15.6182 -15.5928 -15.5044 -15.4629 -15.3876 -15.3010 -15.2640
   -15.2417 -15.2269  -2.9276   4.3902   7.0122   7.2456

          k = 0.4243 0.1414-0.1414 (   986 PWs)   bands (ev):

   -15.6415 -15.6254 -15.5710 -15.4871 -15.4509 -15.3971 -15.3198 -15.2879
   -15.2293 -15.2107  -2.2419   2.9066   6.2638   7.0430

          k =-0.2121-0.4950 0.4950 (   980 PWs)   bands (ev):

   -15.6503 -15.6310 -15.5503 -15.4716 -15.4552 -15.3881 -15.3384 -15.3104
   -15.2194 -15.2008  -1.5166   1.7058   5.6902   7.0788

          k =-0.1414-0.4243 0.4243 (   963 PWs)   bands (ev):

   -15.6512 -15.6348 -15.5387 -15.4718 -15.4599 -15.3657 -15.3541 -15.3227
   -15.2133 -15.1997  -1.3727   1.5048   5.3795   7.3459

          k =-0.0707-0.3536 0.3536 (   974 PWs)   bands (ev):

   -15.6450 -15.6362 -15.5422 -15.4932 -15.4606 -15.3592 -15.3394 -15.3203
   -15.2121 -15.2092  -2.0147   2.4951   5.4048   7.8059

          k = 0.0000-0.2828 0.2828 (   969 PWs)   bands (ev):

   -15.6326 -15.6315 -15.5606 -15.5082 -15.4769 -15.3477 -15.3264 -15.2957
   -15.2275 -15.2159  -2.7393   3.7896   5.9514   8.3621

          k = 0.4243 0.0000 0.0000 (   982 PWs)   bands (ev):

   -15.6235 -15.6235 -15.5982 -15.4874 -15.4334 -15.4224 -15.3152 -15.2527
   -15.2328 -15.2328  -2.5290   3.7307   6.7862   6.7862

          k = 0.4950 0.0707-0.0707 (   982 PWs)   bands (ev):

   -15.6373 -15.6294 -15.5768 -15.4676 -15.4449 -15.4110 -15.3351 -15.2778
   -15.2224 -15.2145  -1.9023   2.6630   6.0930   6.5394

          k =-0.1414-0.5657 0.5657 (   969 PWs)   bands (ev):

   -15.6515 -15.6341 -15.5481 -15.4483 -15.4481 -15.4040 -15.3566 -15.3083
   -15.2140 -15.1975  -1.1461   1.6207   5.2109   6.5377

          k =-0.0707-0.4950 0.4950 (   971 PWs)   bands (ev):

   -15.6594 -15.6375 -15.5312 -15.4332 -15.4315 -15.4170 -15.3761 -15.3257
   -15.2091 -15.1898  -0.7469   1.1571   4.6332   6.7800

          k =-0.0000-0.4243 0.4243 (   967 PWs)   bands (ev):

   -15.6569 -15.6386 -15.5290 -15.4626 -15.4371 -15.3809 -15.3772 -15.3274
   -15.2083 -15.1936  -1.2837   1.7699   4.6116   7.2334

          k = 0.5657 0.0000 0.0000 (   990 PWs)   bands (ev):

   -15.6333 -15.6333 -15.5729 -15.4808 -15.4456 -15.3790 -15.3552 -15.2836
   -15.2156 -15.2156  -1.3338   1.8572   6.2350   6.2350

          k =-0.0707-0.6364 0.6364 (   973 PWs)   bands (ev):

   -15.6432 -15.6357 -15.5458 -15.4978 -15.4235 -15.3773 -15.3604 -15.3116
   -15.2103 -15.2041  -0.5873   0.9717   5.6297   6.1742

          k = 0.0000-0.5657 0.5657 (   973 PWs)   bands (ev):

   -15.6558 -15.6375 -15.5295 -15.4754 -15.4097 -15.3946 -15.3781 -15.3282
   -15.2080 -15.1922  -0.1349   0.5522   4.8404   6.3642

          k =-0.7071 0.0000 0.0000 (   982 PWs)   bands (ev):

   -15.6366 -15.6366 -15.5325 -15.5325 -15.4002 -15.4002 -15.3272 -15.3272
   -15.2091 -15.2091   0.1463   0.1463   6.0479   6.0479

          k = 0.2828 0.1414 0.0000 (   960 PWs)   bands (ev):

   -15.6245 -15.6167 -15.5859 -15.5164 -15.4867 -15.3556 -15.2977 -15.2718
   -15.2467 -15.2254  -3.2351   4.9814   6.9759   8.1912

          k = 0.3536 0.2121-0.0707 (   966 PWs)   bands (ev):

   -15.6351 -15.6278 -15.5672 -15.5018 -15.4688 -15.3701 -15.3111 -15.2948
   -15.2285 -15.2159  -2.6133   3.4914   6.2536   7.7625

          k =-0.2828-0.4243 0.5657 (   977 PWs)   bands (ev):

   -15.6445 -15.6328 -15.5502 -15.4878 -15.4630 -15.3706 -15.3255 -15.3167
   -15.2187 -15.2074  -1.8648   2.0905   5.9338   7.3747

          k =-0.2121-0.3536 0.4950 (   968 PWs)   bands (ev):

   -15.6476 -15.6337 -15.5432 -15.4784 -15.4665 -15.3629 -15.3407 -15.3209
   -15.2160 -15.2035  -1.4216   1.4147   5.8444   7.2256

          k = 0.4243 0.1414-0.0000 (   975 PWs)   bands (ev):

   -15.6333 -15.6309 -15.5758 -15.4873 -15.4398 -15.4110 -15.3179 -15.2804
   -15.2246 -15.2185  -2.3785   3.3806   6.1518   6.9473

          k =-0.2121-0.4950 0.6364 (   972 PWs)   bands (ev):

   -15.6471 -15.6368 -15.5494 -15.4698 -15.4300 -15.4171 -15.3383 -15.3080
   -15.2136 -15.2034  -1.6493   2.2283   5.4560   6.5955

          k =-0.1414-0.4243 0.5657 (   968 PWs)   bands (ev):

   -15.6557 -15.6396 -15.5298 -15.4561 -15.4328 -15.4083 -15.3597 -15.3262
   -15.2087 -15.1938  -1.0109   1.3691   5.0035   6.5333

          k =-0.0707-0.3536 0.4950 (   967 PWs)   bands (ev):

   -15.6552 -15.6407 -15.5268 -15.4649 -15.4350 -15.3970 -15.3600 -15.3293
   -15.2072 -15.1951  -1.2102   1.6282   4.8641   6.7930

          k = 0.0000-0.2828 0.4243 (   966 PWs)   bands (ev):

   -15.6454 -15.6388 -15.5418 -15.4866 -15.4460 -15.3884 -15.3279 -15.3224
   -15.2097 -15.2076  -1.9441   2.6082   5.2116   7.2771

          k =-0.1414-0.5657 0.7071 (   975 PWs)   bands (ev):

   -15.6408 -15.6405 -15.5526 -15.4660 -15.4469 -15.3895 -15.3564 -15.3029
   -15.2083 -15.2080  -1.2191   1.7591   5.6929   6.0661

          k =-0.0707-0.4950 0.6364 (   976 PWs)   bands (ev):

   -15.6541 -15.6431 -15.5231 -15.4668 -15.4277 -15.3856 -15.3794 -15.3318
   -15.2043 -15.1940  -0.4783   0.9476   4.9844   5.9636

          k =-0.0000-0.4243 0.5657 (   976 PWs)   bands (ev):

   -15.6599 -15.6436 -15.5169 -15.4348 -15.4302 -15.4068 -15.3889 -15.3365
   -15.2037 -15.1890  -0.5066   0.9972   4.5590   6.2591

          k =-0.7071 0.1414 0.0000 (   970 PWs)   bands (ev):

   -15.6438 -15.6438 -15.5147 -15.5147 -15.4013 -15.4013 -15.3418 -15.3418
   -15.2026 -15.2026   0.1891   0.1891   5.6517   5.6517

          k =-0.1414-0.4243 0.7071 (   974 PWs)   bands (ev):

   -15.6537 -15.6471 -15.5190 -15.4504 -15.4378 -15.4056 -15.3660 -15.3344
   -15.2012 -15.1956  -0.9091   1.4496   4.9124   5.9883

          k =-0.0707-0.3536 0.6364 (   976 PWs)   bands (ev):

   -15.6579 -15.6492 -15.5034 -15.4466 -15.4315 -15.4017 -15.3840 -15.3460
   -15.1988 -15.1906  -0.4015   0.9205   4.7560   5.7213

          k =-0.7071 0.2828 0.0000 (   972 PWs)   bands (ev):

   -15.6535 -15.6535 -15.4832 -15.4832 -15.4084 -15.4084 -15.3650 -15.3650
   -15.1941 -15.1941   0.2626   0.2626   5.1526   5.1526

     highest occupied level (ev):     9.4733

!    total energy              =    -426.16466430 Ry
     estimated scf accuracy    <       0.00000004 Ry

     The total energy is the sum of the following terms:
     one-electron contribution =    -268.54129637 Ry
     hartree contribution      =     160.94369897 Ry
     xc contribution           =    -114.65762532 Ry
     ewald contribution        =    -203.90944158 Ry

     convergence has been achieved in   6 iterations

     Forces acting on atoms (cartesian axes, Ry/au):

     atom    1 type  1   force =    -0.00000000    0.00000000   -0.00000000
     atom    2 type  1   force =     0.00000000   -0.00000000    0.00000000

     Total force =     0.000000     Total SCF correction =     0.000000


     Computing stress (Cartesian axis) and pressure

          total   stress  (Ry/bohr**3)                   (kbar)     P=       53.24
   0.00036195   0.00000000  -0.00000000           53.24        0.00       -0.00
   0.00000000   0.00036195  -0.00000000            0.00       53.24       -0.00
  -0.00000000   0.00000000   0.00036195           -0.00        0.00       53.24

     Message from routine punch:
     Nothing written, as per user request (disk_io='none')

     init_run     :      0.85s CPU      0.86s WALL (       1 calls)
     electrons    :      6.40s CPU      6.50s WALL (       1 calls)
     forces       :      0.08s CPU      0.08s WALL (       1 calls)
     stress       :      0.47s CPU      0.47s WALL (       1 calls)

     Called by init_run:
     wfcinit      :      0.52s CPU      0.53s WALL (       1 calls)
     potinit      :      0.01s CPU      0.01s WALL (       1 calls)
     hinit0       :      0.28s CPU      0.28s WALL (       1 calls)

     Called by electrons:
     c_bands      :      5.24s CPU      5.33s WALL (       7 calls)
     sum_band     :      1.01s CPU      1.04s WALL (       7 calls)
     v_of_rho     :      0.01s CPU      0.01s WALL (       7 calls)
     newd         :      0.15s CPU      0.15s WALL (       7 calls)
     mix_rho      :      0.00s CPU      0.00s WALL (       7 calls)

     Called by c_bands:
     init_us_2    :      0.19s CPU      0.20s WALL (     799 calls)
     cegterg      :      4.77s CPU      4.84s WALL (     329 calls)

     Called by *egterg:
     cdiaghg      :      0.20s CPU      0.20s WALL (    1075 calls)
     h_psi        :      4.44s CPU      4.51s WALL (    1169 calls)
     s_psi        :      0.11s CPU      0.11s WALL (    1169 calls)
     g_psi        :      0.03s CPU      0.03s WALL (     793 calls)

     Called by h_psi:
     h_psi:calbec :      0.14s CPU      0.15s WALL (    1169 calls)
     vloc_psi     :      4.14s CPU      4.21s WALL (    1169 calls)
     add_vuspsi   :      0.12s CPU      0.12s WALL (    1169 calls)

     General routines
     calbec       :      0.27s CPU      0.27s WALL (    2297 calls)
     fft          :      0.14s CPU      0.14s WALL (      37 calls)
     ffts         :      0.00s CPU      0.00s WALL (       7 calls)
     fftw         :      4.12s CPU      4.19s WALL (   29564 calls)

     Parallel routines

     PWSCF        :      7.88s CPU      8.01s WALL


   This run was terminated on:  21:38:17   8Oct2025            

=------------------------------------------------------------------------------=
   JOB DONE.
=------------------------------------------------------------------------------=
