
     Program PWSCF v.7.4.1 starts on 21Oct2025 at 13: 3:34 

     This program is part of the open-source Quantum ESPRESSO suite
     for quantum simulation of materials; please cite
         "P. Giannozzi et al., J. Phys.:Condens. Matter 21 395502 (2009);
         "P. Giannozzi et al., J. Phys.:Condens. Matter 29 465901 (2017);
         "P. Giannozzi et al., J. Chem. Phys. 152 154105 (2020);
          URL http://www.quantum-espresso.org", 
     in publications or presentations arising from this work. More details at
     http://www.quantum-espresso.org/quote

     Parallel version (MPI), running on     2 processors

     MPI processes distributed on     1 nodes
     779 MiB available memory on the printing compute node when the environment starts

     Waiting for input...
     Reading input from standard input
Warning: card &CELL ignored
Warning: card / ignored

     Current dimensions of program PWSCF are:
     Max number of different atomic species (ntypx) = 10
     Max number of k-points (npk) =  40000
     Max angular momentum in pseudopotentials (lmaxx) =  4
     file O.pz-rrkjus.UPF: wavefunction(s)  2S renormalized
     Message from routine setup:
     using ibrav=0 with symmetry is DISCOURAGED, use correct ibrav instead

     R & G space division:  proc/nbgrp/npool/nimage =       2
     Subspace diagonalization in iterative solution of the eigenvalue problem:
     a serial algorithm will be used


     Parallelization info
     --------------------
     sticks:   dense  smooth     PW     G-vecs:    dense   smooth      PW
     Min         516     254     74                12286     4354     709
     Max         517     255     75                12287     4355     710
     Sum        1033     509    149                24573     8709    1419

     Using Slab Decomposition



     bravais-lattice index     =            0
     lattice parameter (alat)  =       7.3227  a.u.
     unit-cell volume          =     392.6555 (a.u.)^3
     number of atoms/cell      =            5
     number of atomic types    =            3
     number of electrons       =        44.00
     number of Kohn-Sham states=           22
     kinetic-energy cutoff     =      30.0000  Ry
     charge density cutoff     =     240.0000  Ry
     scf convergence threshold =      1.0E-07
     mixing beta               =       0.7000
     number of iterations used =            8  plain     mixing
     energy convergence thresh.=      1.0E-04
     force convergence thresh. =      1.0E-03
     Exchange-correlation= SLA  PZ   NOGX NOGC
                           (   1   1   0   0   0   0   0)
     nstep                     =           50


     celldm(1)=   7.322689  celldm(2)=   0.000000  celldm(3)=   0.000000
     celldm(4)=   0.000000  celldm(5)=   0.000000  celldm(6)=   0.000000

     crystal axes: (cart. coord. in units of alat)
               a(1) = (   1.000000   0.000000   0.000000 )  
               a(2) = (   0.000000   1.000000   0.000000 )  
               a(3) = (   0.000000   0.000000   1.000000 )  

     reciprocal axes: (cart. coord. in units 2 pi/alat)
               b(1) = (  1.000000  0.000000  0.000000 )  
               b(2) = (  0.000000  1.000000  0.000000 )  
               b(3) = (  0.000000  0.000000  1.000000 )  


     PseudoPot. # 1 for O  read from file:
     /home/bond/Software/QE/qe-7.4.1/pseudo/O.pz-rrkjus.UPF
     MD5 check sum: 24fb942a68ef5d262e498166c462ef4a
     Pseudo is Ultrasoft, Zval =  6.0
     Generated by new atomic code, or converted to UPF format
     Using radial grid of 1269 points,  4 beta functions with: 
                l(1) =   0
                l(2) =   0
                l(3) =   1
                l(4) =   1
     Q(r) pseudized with 0 coefficients 


     PseudoPot. # 2 for Pb read from file:
     /home/bond/Software/QE/qe-7.4.1/pseudo/Pb.pz-d-van.UPF
     MD5 check sum: 4e1e5920686a026ae26139ac417581ff
     Pseudo is Ultrasoft, Zval = 14.0
     Generated by new atomic code, or converted to UPF format
     Using radial grid of  899 points,  6 beta functions with: 
                l(1) =   0
                l(2) =   0
                l(3) =   1
                l(4) =   1
                l(5) =   2
                l(6) =   2
     Q(r) pseudized with  8 coefficients,  rinner =    1.000   1.000   1.000
                                                       1.000   1.000

     PseudoPot. # 3 for Ti read from file:
     /home/bond/Software/QE/qe-7.4.1/pseudo/Ti.pz-sp-van_ak.UPF
     MD5 check sum: 545d0e6e05332b8871a8093f427cb0ca
     Pseudo is Ultrasoft, Zval = 12.0
     Generated by new atomic code, or converted to UPF format
     Using radial grid of  851 points,  6 beta functions with: 
                l(1) =   0
                l(2) =   0
                l(3) =   1
                l(4) =   1
                l(5) =   2
                l(6) =   2
     Q(r) pseudized with  8 coefficients,  rinner =    1.000   1.000   1.000
                                                       1.000   1.000

     atomic species   valence    mass     pseudopotential
     O                 6.00    15.99900     O ( 1.00)
     Pb               14.00   207.20000     Pb( 1.00)
     Ti               12.00    47.86700     Ti( 1.00)

      8 Sym. Ops. (no inversion) found



   Cartesian axes

     site n.     atom                  positions (alat units)
         1        Pb     tau(   1) = (   0.0000000   0.0000000   0.0000000  )
         2        Ti     tau(   2) = (   0.5000000   0.5000000   0.5250013  )
         3        O      tau(   3) = (   0.0000000   0.5000000   0.5000000  )
         4        O      tau(   4) = (   0.5000000   0.0000000   0.5000000  )
         5        O      tau(   5) = (   0.5000000   0.5000000   0.0000000  )

     number of k points=     6
                       cart. coord. in units 2pi/alat
        k(    1) = (   0.1250000   0.1250000   0.1250000), wk =   0.2500000
        k(    2) = (   0.1250000   0.1250000   0.3750000), wk =   0.2500000
        k(    3) = (   0.1250000   0.3750000   0.3750000), wk =   0.5000000
        k(    4) = (   0.3750000   0.3750000   0.3750000), wk =   0.2500000
        k(    5) = (   0.3750000  -0.1250000   0.1250000), wk =   0.5000000
        k(    6) = (   0.3750000  -0.3750000   0.1250000), wk =   0.2500000

     Dense  grid:    24573 G-vectors     FFT dimensions: (  40,  40,  40)

     Smooth grid:     8709 G-vectors     FFT dimensions: (  25,  25,  25)

     Estimated max dynamical RAM per process >      51.19 MB

     Estimated total dynamical RAM >     102.38 MB

     Initial potential from superposition of free atoms

     starting charge      42.9982, renormalised to      44.0000
     Starting wfcs are   31 randomized atomic wfcs

     total cpu time spent up to now is        1.8 secs

     Self-consistent Calculation

     iteration #  1     ecut=    30.00 Ry     beta= 0.70
     Davidson diagonalization with overlap
     ethr =  1.00E-02,  avg # of iterations =  2.0

     total cpu time spent up to now is        2.2 secs

     total energy              =    -332.62076044 Ry
     estimated scf accuracy    <       1.09439241 Ry

     iteration #  2     ecut=    30.00 Ry     beta= 0.70
     Davidson diagonalization with overlap
     ethr =  2.49E-03,  avg # of iterations =  6.3

     total cpu time spent up to now is        2.7 secs

     total energy              =    -332.39932061 Ry
     estimated scf accuracy    <       4.03879378 Ry

     iteration #  3     ecut=    30.00 Ry     beta= 0.70
     Davidson diagonalization with overlap
     ethr =  2.49E-03,  avg # of iterations =  5.2

     total cpu time spent up to now is        3.2 secs

     total energy              =    -333.15819115 Ry
     estimated scf accuracy    <       0.21539121 Ry

     iteration #  4     ecut=    30.00 Ry     beta= 0.70
     Davidson diagonalization with overlap
     ethr =  4.90E-04,  avg # of iterations =  2.0

     total cpu time spent up to now is        3.6 secs

     total energy              =    -333.15506057 Ry
     estimated scf accuracy    <       0.05851678 Ry

     iteration #  5     ecut=    30.00 Ry     beta= 0.70
     Davidson diagonalization with overlap
     ethr =  1.33E-04,  avg # of iterations =  4.8

     total cpu time spent up to now is        4.1 secs

     total energy              =    -333.18240344 Ry
     estimated scf accuracy    <       0.02280468 Ry

     iteration #  6     ecut=    30.00 Ry     beta= 0.70
     Davidson diagonalization with overlap
     ethr =  5.18E-05,  avg # of iterations =  1.8

     total cpu time spent up to now is        4.5 secs

     total energy              =    -333.18073659 Ry
     estimated scf accuracy    <       0.00905843 Ry

     iteration #  7     ecut=    30.00 Ry     beta= 0.70
     Davidson diagonalization with overlap
     ethr =  2.06E-05,  avg # of iterations =  4.3

     total cpu time spent up to now is        4.9 secs

     total energy              =    -333.18307782 Ry
     estimated scf accuracy    <       0.00006766 Ry

     iteration #  8     ecut=    30.00 Ry     beta= 0.70
     Davidson diagonalization with overlap
     ethr =  1.54E-07,  avg # of iterations =  7.2

     total cpu time spent up to now is        5.5 secs

     total energy              =    -333.18313236 Ry
     estimated scf accuracy    <       0.00025017 Ry

     iteration #  9     ecut=    30.00 Ry     beta= 0.70
     Davidson diagonalization with overlap
     ethr =  1.54E-07,  avg # of iterations =  2.0

     total cpu time spent up to now is        6.0 secs

     total energy              =    -333.18310417 Ry
     estimated scf accuracy    <       0.00014569 Ry

     iteration # 10     ecut=    30.00 Ry     beta= 0.70
     Davidson diagonalization with overlap
     ethr =  1.54E-07,  avg # of iterations =  4.3

     total cpu time spent up to now is        6.4 secs

     total energy              =    -333.18311682 Ry
     estimated scf accuracy    <       0.00000836 Ry

     iteration # 11     ecut=    30.00 Ry     beta= 0.70
     Davidson diagonalization with overlap
     ethr =  1.90E-08,  avg # of iterations =  4.3

     total cpu time spent up to now is        6.8 secs

     total energy              =    -333.18311925 Ry
     estimated scf accuracy    <       0.00000024 Ry

     iteration # 12     ecut=    30.00 Ry     beta= 0.70
     Davidson diagonalization with overlap
     ethr =  5.39E-10,  avg # of iterations =  4.8

     total cpu time spent up to now is        7.3 secs

     total energy              =    -333.18311915 Ry
     estimated scf accuracy    <       0.00000075 Ry

     iteration # 13     ecut=    30.00 Ry     beta= 0.70
     Davidson diagonalization with overlap
     ethr =  5.39E-10,  avg # of iterations =  4.3

     total cpu time spent up to now is        7.7 secs

     End of self-consistent calculation

          k = 0.1250 0.1250 0.1250 (  1090 PWs)   bands (ev):

   -44.6050 -21.2494 -21.2115 -21.2104  -6.3248  -5.2674  -5.2264  -3.9640
    -3.9599  -3.9473  -3.7800  -3.7754   4.6571   7.3047   7.3254   8.0918
     9.0812   9.1331   9.8142   9.8748  10.0247  10.1690

          k = 0.1250 0.1250 0.3750 (  1095 PWs)   bands (ev):

   -44.6037 -21.3078 -21.2093 -21.2083  -5.8962  -5.1101  -5.1030  -4.0248
    -3.9591  -3.9433  -3.8739  -3.7499   3.9056   6.8357   7.2850   7.8637
     8.4853   8.6911   9.4197   9.9310  10.1600  10.9066

          k = 0.1250 0.3750 0.3750 (  1087 PWs)   bands (ev):

   -44.6024 -21.3042 -21.2652 -21.2067  -5.6816  -5.0171  -4.9298  -3.9981
    -3.9536  -3.8999  -3.8092  -3.6511   3.5475   6.7331   6.9283   7.1992
     7.5103   8.7110   9.4214   9.5120  10.0548  10.7115

          k = 0.3750 0.3750 0.3750 (  1082 PWs)   bands (ev):

   -44.6012 -21.3016 -21.2628 -21.2625  -5.3036  -5.1401  -5.1102  -3.9103
    -3.9051  -3.6190  -3.5549  -3.5413   4.1708   5.9299   5.9645   6.7141
     7.0771   7.1013   7.9952  10.6556  10.6952  10.7670

          k = 0.3750-0.1250 0.1250 (  1095 PWs)   bands (ev):

   -44.6037 -21.2688 -21.2472 -21.2088  -5.9241  -5.1374  -5.0604  -4.0226
    -3.9563  -3.9445  -3.8790  -3.7458   3.9226   6.8737   7.3607   7.8598
     8.4541   8.7828   9.3454   9.9370  10.0712  10.8640

          k = 0.3750-0.3750 0.1250 (  1087 PWs)   bands (ev):

   -44.6024 -21.2657 -21.2648 -21.2450  -5.7347  -4.9847  -4.9107  -3.9935
    -3.9521  -3.8948  -3.8072  -3.6696   3.5629   6.8358   6.8758   7.1784
     7.4831   8.6891   9.4825   9.5036  10.0401  10.7634

     highest occupied level (ev):    10.9066

!    total energy              =    -333.18311917 Ry
     estimated scf accuracy    <       0.00000005 Ry

     The total energy is the sum of the following terms:
     one-electron contribution =     -76.69557963 Ry
     hartree contribution      =      66.34983205 Ry
     xc contribution           =     -49.65806302 Ry
     ewald contribution        =    -273.17930857 Ry

     convergence has been achieved in  13 iterations

     Forces acting on atoms (cartesian axes, Ry/au):

     atom    1 type  2   force =     0.00000000    0.00000000    0.01093508
     atom    2 type  3   force =     0.00000000    0.00000000   -0.01926000
     atom    3 type  1   force =     0.00000000    0.00000000   -0.00007440
     atom    4 type  1   force =     0.00000000    0.00000000   -0.00007440
     atom    5 type  1   force =     0.00000000    0.00000000    0.00847373

     Total force =     0.008474     Total SCF correction =     0.000073


     Computing stress (Cartesian axis) and pressure

          total   stress  (Ry/bohr**3)                   (kbar)     P=       -8.21
  -0.00008826   0.00000000   0.00000000          -12.98        0.00        0.00
   0.00000000  -0.00008826   0.00000000            0.00      -12.98        0.00
   0.00000000   0.00000000   0.00000918            0.00        0.00        1.35


     BFGS Geometry Optimization
     Energy error            =      7.0E-05 Ry
     Gradient error          =      8.5E-03 Ry/Bohr

     number of scf cycles    =   1
     number of bfgs steps    =   0

     energy             new  =    -333.1831191664 Ry

     new trust radius        =       0.0084737265 bohr
     new conv_thr            =       0.0000001000 Ry


ATOMIC_POSITIONS (angstrom)
Pb               0.0000000000        0.0000000000        0.0000000000    0   0   0
Ti               1.9375000000        1.9375000000        2.0343800000    0   0   0
O                0.0000000000        1.9375000000        1.9374606267
O                1.9375000000        0.0000000000        1.9374606267
O                1.9375000000        1.9375000000        0.0044841029


     Message from routine punch:
     Nothing written, as per user request (disk_io='none')
     NEW-OLD atomic charge density approx. for the potential

     total cpu time spent up to now is        9.2 secs

     Self-consistent Calculation

     iteration #  1     ecut=    30.00 Ry     beta= 0.70
     Davidson diagonalization with overlap
     ethr =  1.00E-06,  avg # of iterations =  3.5

     Threshold (ethr) on eigenvalues was too large:
     Diagonalizing with lowered threshold

     Davidson diagonalization with overlap
     ethr =  2.77E-08,  avg # of iterations =  4.5

     total cpu time spent up to now is       10.0 secs

     total energy              =    -333.18317535 Ry
     estimated scf accuracy    <       0.00001662 Ry

     iteration #  2     ecut=    30.00 Ry     beta= 0.70
     Davidson diagonalization with overlap
     ethr =  3.78E-08,  avg # of iterations =  5.5

     total cpu time spent up to now is       10.7 secs

     total energy              =    -333.18317517 Ry
     estimated scf accuracy    <       0.00002362 Ry

     iteration #  3     ecut=    30.00 Ry     beta= 0.70
     Davidson diagonalization with overlap
     ethr =  3.78E-08,  avg # of iterations =  4.3

     total cpu time spent up to now is       11.1 secs

     total energy              =    -333.18318060 Ry
     estimated scf accuracy    <       0.00000255 Ry

     iteration #  4     ecut=    30.00 Ry     beta= 0.70
     Davidson diagonalization with overlap
     ethr =  5.81E-09,  avg # of iterations =  2.7

     total cpu time spent up to now is       11.6 secs

     total energy              =    -333.18318081 Ry
     estimated scf accuracy    <       0.00000038 Ry

     iteration #  5     ecut=    30.00 Ry     beta= 0.70
     Davidson diagonalization with overlap
     ethr =  8.70E-10,  avg # of iterations =  5.0

     total cpu time spent up to now is       12.1 secs

     total energy              =    -333.18318103 Ry
     estimated scf accuracy    <       0.00000015 Ry

     iteration #  6     ecut=    30.00 Ry     beta= 0.70
     Davidson diagonalization with overlap
     ethr =  3.44E-10,  avg # of iterations =  1.7

     total cpu time spent up to now is       12.5 secs

     End of self-consistent calculation

          k = 0.1250 0.1250 0.1250 (  1090 PWs)   bands (ev):

   -44.6101 -21.2510 -21.2166 -21.2156  -6.3252  -5.2659  -5.2277  -3.9629
    -3.9591  -3.9465  -3.7790  -3.7748   4.6579   7.3050   7.3242   8.0910
     9.0855   9.1356   9.8216   9.8755  10.0231  10.1694

          k = 0.1250 0.1250 0.3750 (  1095 PWs)   bands (ev):

   -44.6088 -21.3093 -21.2144 -21.2135  -5.8977  -5.1077  -5.1044  -4.0238
    -3.9581  -3.9425  -3.8732  -3.7488   3.9078   6.8359   7.2874   7.8614
     8.4856   8.6964   9.4194   9.9317  10.1583  10.9061

          k = 0.1250 0.3750 0.3750 (  1087 PWs)   bands (ev):

   -44.6076 -21.3057 -21.2703 -21.2118  -5.6829  -5.0154  -4.9304  -3.9971
    -3.9526  -3.8989  -3.8084  -3.6507   3.5489   6.7363   6.9259   7.1988
     7.5099   8.7097   9.4258   9.5112  10.0561  10.7133

          k = 0.3750 0.3750 0.3750 (  1082 PWs)   bands (ev):

   -44.6063 -21.3032 -21.2679 -21.2677  -5.3033  -5.1392  -5.1113  -3.9092
    -3.9043  -3.6180  -3.5539  -3.5411   4.1717   5.9322   5.9644   6.7133
     7.0769   7.0992   7.9964  10.6585  10.6964  10.7666

          k = 0.3750-0.1250 0.1250 (  1095 PWs)   bands (ev):

   -44.6089 -21.2740 -21.2488 -21.2140  -5.9239  -5.1366  -5.0617  -4.0217
    -3.9554  -3.9436  -3.8780  -3.7451   3.9235   6.8723   7.3610   7.8596
     8.4543   8.7827   9.3497   9.9381  10.0742  10.8657

          k = 0.3750-0.3750 0.1250 (  1087 PWs)   bands (ev):

   -44.6076 -21.2709 -21.2699 -21.2466  -5.7327  -4.9858  -4.9122  -3.9928
    -3.9513  -3.8942  -3.8065  -3.6680   3.5630   6.8346   6.8748   7.1813
     7.4865   8.6894   9.4832   9.5031  10.0408  10.7621

     highest occupied level (ev):    10.9061

!    total energy              =    -333.18318097 Ry
     estimated scf accuracy    <       0.00000007 Ry

     The total energy is the sum of the following terms:
     one-electron contribution =     -76.65761997 Ry
     hartree contribution      =      66.32964313 Ry
     xc contribution           =     -49.65670241 Ry
     ewald contribution        =    -273.19850172 Ry

     convergence has been achieved in   6 iterations

     Forces acting on atoms (cartesian axes, Ry/au):

     atom    1 type  2   force =     0.00000000    0.00000000    0.01108870
     atom    2 type  3   force =     0.00000000    0.00000000   -0.01844823
     atom    3 type  1   force =     0.00000000    0.00000000    0.00074932
     atom    4 type  1   force =     0.00000000    0.00000000    0.00074932
     atom    5 type  1   force =     0.00000000    0.00000000    0.00586089

     Total force =     0.005956     Total SCF correction =     0.000027


     Computing stress (Cartesian axis) and pressure

          total   stress  (Ry/bohr**3)                   (kbar)     P=       -8.98
  -0.00009027   0.00000000   0.00000000          -13.28        0.00        0.00
   0.00000000  -0.00009027   0.00000000            0.00      -13.28        0.00
   0.00000000   0.00000000  -0.00000252            0.00        0.00       -0.37

     Energy error            =      6.2E-05 Ry
     Gradient error          =      5.9E-03 Ry/Bohr

     number of scf cycles    =   2
     number of bfgs steps    =   1

     energy             old  =    -333.1831191664 Ry
     energy             new  =    -333.1831809746 Ry

     CASE: energy            _new < energy            _old

     new trust radius        =       0.0093210991 bohr
     new conv_thr            =       0.0000000010 Ry


ATOMIC_POSITIONS (angstrom)
Pb               0.0000000000        0.0000000000        0.0000000000    0   0   0
Ti               1.9375000000        1.9375000000        2.0343800000    0   0   0
O                0.0000000000        1.9375000000        1.9380394466
O                1.9375000000        0.0000000000        1.9380394466
O                1.9375000000        1.9375000000        0.0094166162


     Message from routine punch:
     Nothing written, as per user request (disk_io='none')
     NEW-OLD atomic charge density approx. for the potential

     total cpu time spent up to now is       14.0 secs

     Self-consistent Calculation

     iteration #  1     ecut=    30.00 Ry     beta= 0.70
     Davidson diagonalization with overlap
     ethr =  1.00E-06,  avg # of iterations =  3.7

     Threshold (ethr) on eigenvalues was too large:
     Diagonalizing with lowered threshold

     Davidson diagonalization with overlap
     ethr =  3.27E-08,  avg # of iterations =  5.0

     total cpu time spent up to now is       14.8 secs

     total energy              =    -333.18321819 Ry
     estimated scf accuracy    <       0.00002018 Ry

     iteration #  2     ecut=    30.00 Ry     beta= 0.70
     Davidson diagonalization with overlap
     ethr =  4.59E-08,  avg # of iterations =  5.5

     total cpu time spent up to now is       15.2 secs

     total energy              =    -333.18321796 Ry
     estimated scf accuracy    <       0.00003078 Ry

     iteration #  3     ecut=    30.00 Ry     beta= 0.70
     Davidson diagonalization with overlap
     ethr =  4.59E-08,  avg # of iterations =  4.5

     total cpu time spent up to now is       15.7 secs

     total energy              =    -333.18322468 Ry
     estimated scf accuracy    <       0.00000257 Ry

     iteration #  4     ecut=    30.00 Ry     beta= 0.70
     Davidson diagonalization with overlap
     ethr =  5.84E-09,  avg # of iterations =  3.0

     total cpu time spent up to now is       16.1 secs

     total energy              =    -333.18322498 Ry
     estimated scf accuracy    <       0.00000028 Ry

     iteration #  5     ecut=    30.00 Ry     beta= 0.70
     Davidson diagonalization with overlap
     ethr =  6.35E-10,  avg # of iterations =  5.2

     total cpu time spent up to now is       16.5 secs

     total energy              =    -333.18322513 Ry
     estimated scf accuracy    <       0.00000009 Ry

     iteration #  6     ecut=    30.00 Ry     beta= 0.70
     Davidson diagonalization with overlap
     ethr =  2.15E-10,  avg # of iterations =  2.0

     total cpu time spent up to now is       16.9 secs

     total energy              =    -333.18322512 Ry
     estimated scf accuracy    <       0.00000004 Ry

     iteration #  7     ecut=    30.00 Ry     beta= 0.70
     Davidson diagonalization with overlap
     ethr =  8.06E-11,  avg # of iterations =  4.7

     total cpu time spent up to now is       17.3 secs

     total energy              =    -333.18322514 Ry
     estimated scf accuracy    <       0.00000001 Ry

     iteration #  8     ecut=    30.00 Ry     beta= 0.70
     Davidson diagonalization with overlap
     ethr =  3.25E-11,  avg # of iterations =  1.3

     total cpu time spent up to now is       17.7 secs

     total energy              =    -333.18322514 Ry
     estimated scf accuracy    <          6.8E-09 Ry

     iteration #  9     ecut=    30.00 Ry     beta= 0.70
     Davidson diagonalization with overlap
     ethr =  1.54E-11,  avg # of iterations =  4.3

     total cpu time spent up to now is       18.0 secs

     End of self-consistent calculation

          k = 0.1250 0.1250 0.1250 (  1090 PWs)   bands (ev):

   -44.6150 -21.2523 -21.2216 -21.2206  -6.3258  -5.2645  -5.2292  -3.9618
    -3.9582  -3.9456  -3.7781  -3.7741   4.6588   7.3052   7.3228   8.0902
     9.0903   9.1380   9.8302   9.8765  10.0211  10.1691

          k = 0.1250 0.1250 0.3750 (  1095 PWs)   bands (ev):

   -44.6137 -21.3105 -21.2194 -21.2184  -5.8994  -5.1062  -5.1053  -4.0227
    -3.9569  -3.9417  -3.8726  -3.7478   3.9101   6.8360   7.2902   7.8592
     8.4856   8.7018   9.4189   9.9327  10.1563  10.9053

          k = 0.1250 0.3750 0.3750 (  1087 PWs)   bands (ev):

   -44.6124 -21.3069 -21.2752 -21.2168  -5.6843  -5.0138  -4.9311  -3.9960
    -3.9516  -3.8979  -3.8075  -3.6503   3.5502   6.7401   6.9229   7.1981
     7.5093   8.7082   9.4301   9.5102  10.0573  10.7151

          k = 0.3750 0.3750 0.3750 (  1082 PWs)   bands (ev):

   -44.6112 -21.3044 -21.2729 -21.2726  -5.3030  -5.1384  -5.1126  -3.9080
    -3.9035  -3.6170  -3.5529  -3.5410   4.1726   5.9344   5.9640   6.7127
     7.0761   7.0965   7.9976  10.6615  10.6974  10.7663

          k = 0.3750-0.1250 0.1250 (  1095 PWs)   bands (ev):

   -44.6137 -21.2789 -21.2500 -21.2190  -5.9238  -5.1359  -5.0631  -4.0208
    -3.9545  -3.9427  -3.8770  -3.7445   3.9244   6.8708   7.3612   7.8592
     8.4544   8.7822   9.3543   9.9393  10.0775  10.8673

          k = 0.3750-0.3750 0.1250 (  1087 PWs)   bands (ev):

   -44.6125 -21.2758 -21.2749 -21.2479  -5.7307  -4.9870  -4.9138  -3.9920
    -3.9503  -3.8936  -3.8058  -3.6665   3.5631   6.8334   6.8734   7.1841
     7.4897   8.6894   9.4835   9.5026  10.0415  10.7606

     highest occupied level (ev):    10.9053

!    total energy              =    -333.18322514 Ry
     estimated scf accuracy    <          8.3E-11 Ry

     The total energy is the sum of the following terms:
     one-electron contribution =     -76.62039332 Ry
     hartree contribution      =      66.30935771 Ry
     xc contribution           =     -49.65537504 Ry
     ewald contribution        =    -273.21681449 Ry

     convergence has been achieved in   9 iterations

     Forces acting on atoms (cartesian axes, Ry/au):

     atom    1 type  2   force =     0.00000000    0.00000000    0.01112922
     atom    2 type  3   force =     0.00000000    0.00000000   -0.01748721
     atom    3 type  1   force =     0.00000000    0.00000000    0.00155587
     atom    4 type  1   force =     0.00000000    0.00000000    0.00155587
     atom    5 type  1   force =     0.00000000    0.00000000    0.00324624

     Total force =     0.003922     Total SCF correction =     0.000006


     Computing stress (Cartesian axis) and pressure

          total   stress  (Ry/bohr**3)                   (kbar)     P=      -10.21
  -0.00009505   0.00000000   0.00000000          -13.98        0.00        0.00
   0.00000000  -0.00009505   0.00000000            0.00      -13.98        0.00
   0.00000000   0.00000000  -0.00001813            0.00        0.00       -2.67

     Energy error            =      4.4E-05 Ry
     Gradient error          =      3.2E-03 Ry/Bohr

     number of scf cycles    =   3
     number of bfgs steps    =   2

     energy             old  =    -333.1831809746 Ry
     energy             new  =    -333.1832251405 Ry

     CASE: energy            _new < energy            _old

     new trust radius        =       0.0139816486 bohr
     new conv_thr            =       0.0000000010 Ry


ATOMIC_POSITIONS (angstrom)
Pb               0.0000000000        0.0000000000        0.0000000000    0   0   0
Ti               1.9375000000        1.9375000000        2.0343800000    0   0   0
O                0.0000000000        1.9375000000        1.9401490867
O                1.9375000000        0.0000000000        1.9401490867
O                1.9375000000        1.9375000000        0.0168153860


     Message from routine punch:
     Nothing written, as per user request (disk_io='none')
     NEW-OLD atomic charge density approx. for the potential

     total cpu time spent up to now is       19.5 secs

     Self-consistent Calculation

     iteration #  1     ecut=    30.00 Ry     beta= 0.70
     Davidson diagonalization with overlap
     ethr =  1.00E-06,  avg # of iterations =  4.5

     Threshold (ethr) on eigenvalues was too large:
     Diagonalizing with lowered threshold

     Davidson diagonalization with overlap
     ethr =  7.34E-08,  avg # of iterations =  3.0

     total cpu time spent up to now is       20.2 secs

     total energy              =    -333.18325322 Ry
     estimated scf accuracy    <       0.00003522 Ry

     iteration #  2     ecut=    30.00 Ry     beta= 0.70
     Davidson diagonalization with overlap
     ethr =  8.00E-08,  avg # of iterations =  4.5

     total cpu time spent up to now is       20.8 secs

     total energy              =    -333.18325486 Ry
     estimated scf accuracy    <       0.00002209 Ry

     iteration #  3     ecut=    30.00 Ry     beta= 0.70
     Davidson diagonalization with overlap
     ethr =  5.02E-08,  avg # of iterations =  4.5

     total cpu time spent up to now is       21.2 secs

     total energy              =    -333.18326032 Ry
     estimated scf accuracy    <       0.00000855 Ry

     iteration #  4     ecut=    30.00 Ry     beta= 0.70
     Davidson diagonalization with overlap
     ethr =  1.94E-08,  avg # of iterations =  3.7

     total cpu time spent up to now is       21.6 secs

     total energy              =    -333.18326072 Ry
     estimated scf accuracy    <       0.00000035 Ry

     iteration #  5     ecut=    30.00 Ry     beta= 0.70
     Davidson diagonalization with overlap
     ethr =  8.05E-10,  avg # of iterations =  5.8

     total cpu time spent up to now is       22.1 secs

     total energy              =    -333.18326110 Ry
     estimated scf accuracy    <       0.00000058 Ry

     iteration #  6     ecut=    30.00 Ry     beta= 0.70
     Davidson diagonalization with overlap
     ethr =  8.05E-10,  avg # of iterations =  1.7

     total cpu time spent up to now is       22.4 secs

     total energy              =    -333.18326176 Ry
     estimated scf accuracy    <       0.00000031 Ry

     iteration #  7     ecut=    30.00 Ry     beta= 0.70
     Davidson diagonalization with overlap
     ethr =  7.14E-10,  avg # of iterations =  3.8

     total cpu time spent up to now is       22.8 secs

     total energy              =    -333.18326109 Ry
     estimated scf accuracy    <       0.00000001 Ry

     iteration #  8     ecut=    30.00 Ry     beta= 0.70
     Davidson diagonalization with overlap
     ethr =  2.40E-11,  avg # of iterations =  4.5

     total cpu time spent up to now is       23.3 secs

     total energy              =    -333.18326110 Ry
     estimated scf accuracy    <          2.2E-09 Ry

     iteration #  9     ecut=    30.00 Ry     beta= 0.70
     Davidson diagonalization with overlap
     ethr =  4.96E-12,  avg # of iterations =  2.0

     total cpu time spent up to now is       23.6 secs

     total energy              =    -333.18326110 Ry
     estimated scf accuracy    <          1.0E-09 Ry

     iteration # 10     ecut=    30.00 Ry     beta= 0.70
     Davidson diagonalization with overlap
     ethr =  2.36E-12,  avg # of iterations =  3.5

     total cpu time spent up to now is       24.0 secs

     End of self-consistent calculation

          k = 0.1250 0.1250 0.1250 (  1090 PWs)   bands (ev):

   -44.6224 -21.2546 -21.2292 -21.2281  -6.3264  -5.2624  -5.2317  -3.9603
    -3.9571  -3.9444  -3.7767  -3.7733   4.6600   7.3059   7.3210   8.0897
     9.0977   9.1412   9.8445   9.8788  10.0177  10.1676

          k = 0.1250 0.1250 0.3750 (  1095 PWs)   bands (ev):

   -44.6211 -21.3128 -21.2269 -21.2260  -5.9018  -5.1090  -5.1016  -4.0212
    -3.9554  -3.9406  -3.8718  -3.7464   3.9135   6.8365   7.2954   7.8566
     8.4847   8.7097   9.4179   9.9348  10.1531  10.9038

          k = 0.1250 0.3750 0.3750 (  1087 PWs)   bands (ev):

   -44.6199 -21.3092 -21.2828 -21.2244  -5.6866  -5.0112  -4.9317  -3.9946
    -3.9502  -3.8966  -3.8062  -3.6499   3.5522   6.7466   6.9174   7.1973
     7.5085   8.7058   9.4361   9.5087  10.0588  10.7183

          k = 0.3750 0.3750 0.3750 (  1082 PWs)   bands (ev):

   -44.6186 -21.3067 -21.2804 -21.2801  -5.3025  -5.1369  -5.1143  -3.9065
    -3.9025  -3.6156  -3.5514  -3.5409   4.1737   5.9377   5.9633   6.7125
     7.0740   7.0914   7.9991  10.6663  10.6988  10.7661

          k = 0.3750-0.1250 0.1250 (  1095 PWs)   bands (ev):

   -44.6212 -21.2864 -21.2524 -21.2265  -5.9233  -5.1349  -5.0652  -4.0196
    -3.9532  -3.9415  -3.8756  -3.7435   3.9256   6.8682   7.3611   7.8587
     8.4550   8.7808   9.3610   9.9415  10.0830  10.8697

          k = 0.3750-0.3750 0.1250 (  1087 PWs)   bands (ev):

   -44.6199 -21.2833 -21.2824 -21.2502  -5.7272  -4.9888  -4.9161  -3.9910
    -3.9491  -3.8927  -3.8048  -3.6642   3.5630   6.8315   6.8710   7.1877
     7.4936   8.6895   9.4834   9.5021  10.0430  10.7585

     highest occupied level (ev):    10.9038

!    total energy              =    -333.18326110 Ry
     estimated scf accuracy    <          1.7E-10 Ry

     The total energy is the sum of the following terms:
     one-electron contribution =     -76.57601824 Ry
     hartree contribution      =      66.28528255 Ry
     xc contribution           =     -49.65358466 Ry
     ewald contribution        =    -273.23894075 Ry

     convergence has been achieved in  10 iterations

     Forces acting on atoms (cartesian axes, Ry/au):

     atom    1 type  2   force =     0.00000000    0.00000000    0.01114372
     atom    2 type  3   force =     0.00000000    0.00000000   -0.01624297
     atom    3 type  1   force =     0.00000000    0.00000000    0.00260351
     atom    4 type  1   force =     0.00000000    0.00000000    0.00260351
     atom    5 type  1   force =     0.00000000    0.00000000   -0.00010778

     Total force =     0.003683     Total SCF correction =     0.000004


     Computing stress (Cartesian axis) and pressure

          total   stress  (Ry/bohr**3)                   (kbar)     P=      -11.30
  -0.00009757   0.00000000   0.00000000          -14.35        0.00        0.00
   0.00000000  -0.00009757   0.00000000            0.00      -14.35        0.00
   0.00000000   0.00000000  -0.00003538            0.00        0.00       -5.20

     Energy error            =      3.6E-05 Ry
     Gradient error          =      2.6E-03 Ry/Bohr

     number of scf cycles    =   4
     number of bfgs steps    =   3

     energy             old  =    -333.1832251405 Ry
     energy             new  =    -333.1832610951 Ry

     CASE: energy            _new < energy            _old

     new trust radius        =       0.0092817523 bohr
     new conv_thr            =       0.0000000010 Ry


ATOMIC_POSITIONS (angstrom)
Pb               0.0000000000        0.0000000000        0.0000000000    0   0   0
Ti               1.9375000000        1.9375000000        2.0343800000    0   0   0
O                0.0000000000        1.9375000000        1.9431493464
O                1.9375000000        0.0000000000        1.9431493464
O                1.9375000000        1.9375000000        0.0217270778


     Message from routine punch:
     Nothing written, as per user request (disk_io='none')
     NEW-OLD atomic charge density approx. for the potential

     total cpu time spent up to now is       25.6 secs

     Self-consistent Calculation

     iteration #  1     ecut=    30.00 Ry     beta= 0.70
     Davidson diagonalization with overlap
     ethr =  1.00E-06,  avg # of iterations =  4.0

     Threshold (ethr) on eigenvalues was too large:
     Diagonalizing with lowered threshold

     Davidson diagonalization with overlap
     ethr =  3.26E-08,  avg # of iterations =  5.0

     total cpu time spent up to now is       26.3 secs

     total energy              =    -333.18328432 Ry
     estimated scf accuracy    <       0.00001713 Ry

     iteration #  2     ecut=    30.00 Ry     beta= 0.70
     Davidson diagonalization with overlap
     ethr =  3.89E-08,  avg # of iterations =  4.7

     total cpu time spent up to now is       26.8 secs

     total energy              =    -333.18328438 Ry
     estimated scf accuracy    <       0.00000891 Ry

     iteration #  3     ecut=    30.00 Ry     beta= 0.70
     Davidson diagonalization with overlap
     ethr =  2.03E-08,  avg # of iterations =  4.7

     total cpu time spent up to now is       27.2 secs

     total energy              =    -333.18328682 Ry
     estimated scf accuracy    <       0.00000542 Ry

     iteration #  4     ecut=    30.00 Ry     beta= 0.70
     Davidson diagonalization with overlap
     ethr =  1.23E-08,  avg # of iterations =  3.3

     total cpu time spent up to now is       27.6 secs

     total energy              =    -333.18328737 Ry
     estimated scf accuracy    <       0.00000036 Ry

     iteration #  5     ecut=    30.00 Ry     beta= 0.70
     Davidson diagonalization with overlap
     ethr =  8.18E-10,  avg # of iterations =  6.0

     total cpu time spent up to now is       28.0 secs

     total energy              =    -333.18328768 Ry
     estimated scf accuracy    <       0.00000051 Ry

     iteration #  6     ecut=    30.00 Ry     beta= 0.70
     Davidson diagonalization with overlap
     ethr =  8.18E-10,  avg # of iterations =  2.0

     total cpu time spent up to now is       28.4 secs

     total energy              =    -333.18328762 Ry
     estimated scf accuracy    <       0.00000029 Ry

     iteration #  7     ecut=    30.00 Ry     beta= 0.70
     Davidson diagonalization with overlap
     ethr =  6.58E-10,  avg # of iterations =  3.8

     total cpu time spent up to now is       28.8 secs

     total energy              =    -333.18328765 Ry
     estimated scf accuracy    <       0.00000003 Ry

     iteration #  8     ecut=    30.00 Ry     beta= 0.70
     Davidson diagonalization with overlap
     ethr =  6.26E-11,  avg # of iterations =  4.5

     total cpu time spent up to now is       29.2 secs

     total energy              =    -333.18328766 Ry
     estimated scf accuracy    <          2.6E-09 Ry

     iteration #  9     ecut=    30.00 Ry     beta= 0.70
     Davidson diagonalization with overlap
     ethr =  5.98E-12,  avg # of iterations =  2.7

     total cpu time spent up to now is       29.6 secs

     End of self-consistent calculation

          k = 0.1250 0.1250 0.1250 (  1090 PWs)   bands (ev):

   -44.6269 -21.2560 -21.2338 -21.2328  -6.3268  -5.2611  -5.2337  -3.9594
    -3.9565  -3.9437  -3.7760  -3.7728   4.6607   7.3065   7.3199   8.0899
     9.1029   9.1431   9.8555   9.8810  10.0148  10.1651

          k = 0.1250 0.1250 0.3750 (  1095 PWs)   bands (ev):

   -44.6256 -21.3142 -21.2316 -21.2306  -5.9035  -5.1113  -5.0991  -4.0204
    -3.9545  -3.9400  -3.8713  -3.7455   3.9158   6.8371   7.2999   7.8557
     8.4829   8.7147   9.4168   9.9368  10.1506  10.9022

          k = 0.1250 0.3750 0.3750 (  1087 PWs)   bands (ev):

   -44.6244 -21.3106 -21.2874 -21.2290  -5.6883  -5.0096  -4.9322  -3.9938
    -3.9494  -3.8958  -3.8055  -3.6497   3.5534   6.7517   6.9126   7.1968
     7.5078   8.7040   9.4395   9.5075  10.0595  10.7206

          k = 0.3750 0.3750 0.3750 (  1082 PWs)   bands (ev):

   -44.6231 -21.3081 -21.2850 -21.2848  -5.3021  -5.1358  -5.1156  -3.9056
    -3.9019  -3.6147  -3.5505  -3.5408   4.1742   5.9398   5.9625   6.7130
     7.0714   7.0868   7.9999  10.6695  10.6994  10.7662

          k = 0.3750-0.1250 0.1250 (  1095 PWs)   bands (ev):

   -44.6257 -21.2911 -21.2538 -21.2311  -5.9229  -5.1345  -5.0667  -4.0189
    -3.9525  -3.9408  -3.8747  -3.7430   3.9263   6.8661   7.3605   7.8586
     8.4555   8.7790   9.3653   9.9431  10.0871  10.8710

          k = 0.3750-0.3750 0.1250 (  1087 PWs)   bands (ev):

   -44.6244 -21.2879 -21.2870 -21.2516  -5.7248  -4.9900  -4.9177  -3.9905
    -3.9484  -3.8922  -3.8042  -3.6629   3.5627   6.8302   6.8689   7.1893
     7.4952   8.6894   9.4826   9.5017  10.0443  10.7568

     highest occupied level (ev):    10.9022

!    total energy              =    -333.18328766 Ry
     estimated scf accuracy    <          8.3E-10 Ry

     The total energy is the sum of the following terms:
     one-electron contribution =     -76.55701695 Ry
     hartree contribution      =      66.27461467 Ry
     xc contribution           =     -49.65265100 Ry
     ewald contribution        =    -273.24823438 Ry

     convergence has been achieved in   9 iterations

     Forces acting on atoms (cartesian axes, Ry/au):

     atom    1 type  2   force =     0.00000000    0.00000000    0.01100857
     atom    2 type  3   force =     0.00000000    0.00000000   -0.01548299
     atom    3 type  1   force =     0.00000000    0.00000000    0.00307380
     atom    4 type  1   force =     0.00000000    0.00000000    0.00307380
     atom    5 type  1   force =     0.00000000    0.00000000   -0.00167317

     Total force =     0.004658     Total SCF correction =     0.000010


     Computing stress (Cartesian axis) and pressure

          total   stress  (Ry/bohr**3)                   (kbar)     P=      -11.89
  -0.00009849   0.00000000   0.00000000          -14.49        0.00        0.00
   0.00000000  -0.00009849   0.00000000            0.00      -14.49        0.00
   0.00000000   0.00000000  -0.00004542            0.00        0.00       -6.68

     Energy error            =      2.7E-05 Ry
     Gradient error          =      3.1E-03 Ry/Bohr

     number of scf cycles    =   5
     number of bfgs steps    =   4

     energy             old  =    -333.1832610951 Ry
     energy             new  =    -333.1832876640 Ry

     CASE: energy            _new < energy            _old

     new trust radius        =       0.0102099276 bohr
     new conv_thr            =       0.0000000010 Ry


ATOMIC_POSITIONS (angstrom)
Pb               0.0000000000        0.0000000000        0.0000000000    0   0   0
Ti               1.9375000000        1.9375000000        2.0343800000    0   0   0
O                0.0000000000        1.9375000000        1.9478326189
O                1.9375000000        0.0000000000        1.9478326189
O                1.9375000000        1.9375000000        0.0271299388


     Message from routine punch:
     Nothing written, as per user request (disk_io='none')
     NEW-OLD atomic charge density approx. for the potential

     total cpu time spent up to now is       31.1 secs

     Self-consistent Calculation

     iteration #  1     ecut=    30.00 Ry     beta= 0.70
     Davidson diagonalization with overlap
     ethr =  1.00E-06,  avg # of iterations =  4.5

     Threshold (ethr) on eigenvalues was too large:
     Diagonalizing with lowered threshold

     Davidson diagonalization with overlap
     ethr =  5.09E-08,  avg # of iterations =  4.3

     total cpu time spent up to now is       31.9 secs

     total energy              =    -333.18331754 Ry
     estimated scf accuracy    <       0.00002434 Ry

     iteration #  2     ecut=    30.00 Ry     beta= 0.70
     Davidson diagonalization with overlap
     ethr =  5.53E-08,  avg # of iterations =  3.5

     total cpu time spent up to now is       32.4 secs

     total energy              =    -333.18331938 Ry
     estimated scf accuracy    <       0.00000537 Ry

     iteration #  3     ecut=    30.00 Ry     beta= 0.70
     Davidson diagonalization with overlap
     ethr =  1.22E-08,  avg # of iterations =  5.0

     total cpu time spent up to now is       32.8 secs

     total energy              =    -333.18332050 Ry
     estimated scf accuracy    <       0.00000550 Ry

     iteration #  4     ecut=    30.00 Ry     beta= 0.70
     Davidson diagonalization with overlap
     ethr =  1.22E-08,  avg # of iterations =  3.8

     total cpu time spent up to now is       33.2 secs

     total energy              =    -333.18332147 Ry
     estimated scf accuracy    <       0.00000010 Ry

     iteration #  5     ecut=    30.00 Ry     beta= 0.70
     Davidson diagonalization with overlap
     ethr =  2.26E-10,  avg # of iterations =  6.2

     total cpu time spent up to now is       33.7 secs

     total energy              =    -333.18332154 Ry
     estimated scf accuracy    <       0.00000029 Ry

     iteration #  6     ecut=    30.00 Ry     beta= 0.70
     Davidson diagonalization with overlap
     ethr =  2.26E-10,  avg # of iterations =  4.3

     total cpu time spent up to now is       34.1 secs

     total energy              =    -333.18332157 Ry
     estimated scf accuracy    <       0.00000003 Ry

     iteration #  7     ecut=    30.00 Ry     beta= 0.70
     Davidson diagonalization with overlap
     ethr =  5.95E-11,  avg # of iterations =  4.0

     total cpu time spent up to now is       34.5 secs

     total energy              =    -333.18332157 Ry
     estimated scf accuracy    <          1.7E-09 Ry

     iteration #  8     ecut=    30.00 Ry     beta= 0.70
     Davidson diagonalization with overlap
     ethr =  3.89E-12,  avg # of iterations =  5.8

     total cpu time spent up to now is       35.0 secs

     total energy              =    -333.18332157 Ry
     estimated scf accuracy    <          1.5E-09 Ry

     iteration #  9     ecut=    30.00 Ry     beta= 0.70
     Davidson diagonalization with overlap
     ethr =  3.41E-12,  avg # of iterations =  2.0

     total cpu time spent up to now is       35.3 secs

     End of self-consistent calculation

          k = 0.1250 0.1250 0.1250 (  1090 PWs)   bands (ev):

   -44.6316 -21.2576 -21.2387 -21.2377  -6.3271  -5.2599  -5.2362  -3.9585
    -3.9559  -3.9430  -3.7753  -3.7723   4.6615   7.3074   7.3188   8.0905
     9.1086   9.1448   9.8689   9.8839  10.0110  10.1611

          k = 0.1250 0.1250 0.3750 (  1095 PWs)   bands (ev):

   -44.6303 -21.3157 -21.2365 -21.2355  -5.9056  -5.1142  -5.0964  -4.0195
    -3.9536  -3.9393  -3.8708  -3.7447   3.9185   6.8379   7.3058   7.8552
     8.4799   8.7199   9.4151   9.9394  10.1474  10.9001

          k = 0.1250 0.3750 0.3750 (  1087 PWs)   bands (ev):

   -44.6291 -21.3121 -21.2923 -21.2339  -5.6903  -5.0079  -4.9326  -3.9929
    -3.9486  -3.8950  -3.8048  -3.6496   3.5545   6.7581   6.9063   7.1962
     7.5069   8.7019   9.4427   9.5060  10.0600  10.7231

          k = 0.3750 0.3750 0.3750 (  1082 PWs)   bands (ev):

   -44.6278 -21.3096 -21.2899 -21.2897  -5.3016  -5.1347  -5.1171  -3.9047
    -3.9014  -3.6137  -3.5495  -3.5408   4.1744   5.9418   5.9612   6.7140
     7.0678   7.0808   8.0008  10.6731  10.6997  10.7662

          k = 0.3750-0.1250 0.1250 (  1095 PWs)   bands (ev):

   -44.6304 -21.2960 -21.2553 -21.2360  -5.9224  -5.1344  -5.0684  -4.0183
    -3.9518  -3.9400  -3.8737  -3.7424   3.9270   6.8634   7.3594   7.8585
     8.4563   8.7764   9.3697   9.9449  10.0919  10.8723

          k = 0.3750-0.3750 0.1250 (  1087 PWs)   bands (ev):

   -44.6291 -21.2928 -21.2919 -21.2532  -5.7219  -4.9916  -4.9196  -3.9900
    -3.9476  -3.8916  -3.8035  -3.6614   3.5622   6.8286   6.8662   7.1903
     7.4961   8.6891   9.4812   9.5013  10.0460  10.7548

     highest occupied level (ev):    10.9001

!    total energy              =    -333.18332157 Ry
     estimated scf accuracy    <          4.6E-10 Ry

     The total energy is the sum of the following terms:
     one-electron contribution =     -76.54507393 Ry
     hartree contribution      =      66.26745329 Ry
     xc contribution           =     -49.65183167 Ry
     ewald contribution        =    -273.25386927 Ry

     convergence has been achieved in   9 iterations

     Forces acting on atoms (cartesian axes, Ry/au):

     atom    1 type  2   force =     0.00000000    0.00000000    0.01074476
     atom    2 type  3   force =     0.00000000    0.00000000   -0.01472500
     atom    3 type  1   force =     0.00000000    0.00000000    0.00339678
     atom    4 type  1   force =     0.00000000    0.00000000    0.00339678
     atom    5 type  1   force =     0.00000000    0.00000000   -0.00281331

     Total force =     0.005567     Total SCF correction =     0.000008


     Computing stress (Cartesian axis) and pressure

          total   stress  (Ry/bohr**3)                   (kbar)     P=      -12.34
  -0.00009843   0.00000000   0.00000000          -14.48        0.00        0.00
   0.00000000  -0.00009843   0.00000000            0.00      -14.48        0.00
   0.00000000   0.00000000  -0.00005472            0.00        0.00       -8.05

     Energy error            =      3.4E-05 Ry
     Gradient error          =      3.4E-03 Ry/Bohr

     number of scf cycles    =   6
     number of bfgs steps    =   5

     energy             old  =    -333.1832876640 Ry
     energy             new  =    -333.1833215745 Ry

     CASE: energy            _new < energy            _old

     new trust radius        =       0.0153148913 bohr
     new conv_thr            =       0.0000000010 Ry


ATOMIC_POSITIONS (angstrom)
Pb               0.0000000000        0.0000000000        0.0000000000    0   0   0
Ti               1.9375000000        1.9375000000        2.0343800000    0   0   0
O                0.0000000000        1.9375000000        1.9559369104
O                1.9375000000        0.0000000000        1.9559369104
O                1.9375000000        1.9375000000        0.0349763615


     Message from routine punch:
     Nothing written, as per user request (disk_io='none')
     NEW-OLD atomic charge density approx. for the potential

     total cpu time spent up to now is       36.9 secs

     Self-consistent Calculation

     iteration #  1     ecut=    30.00 Ry     beta= 0.70
     Davidson diagonalization with overlap
     ethr =  1.00E-06,  avg # of iterations =  5.3

     total cpu time spent up to now is       37.3 secs

     total energy              =    -333.18337157 Ry
     estimated scf accuracy    <       0.00005657 Ry

     iteration #  2     ecut=    30.00 Ry     beta= 0.70
     Davidson diagonalization with overlap
     ethr =  1.29E-07,  avg # of iterations =  3.5

     total cpu time spent up to now is       37.7 secs

     total energy              =    -333.18337963 Ry
     estimated scf accuracy    <       0.00000656 Ry

     iteration #  3     ecut=    30.00 Ry     beta= 0.70
     Davidson diagonalization with overlap
     ethr =  1.49E-08,  avg # of iterations =  5.7

     total cpu time spent up to now is       38.2 secs

     total energy              =    -333.18338039 Ry
     estimated scf accuracy    <       0.00000922 Ry

     iteration #  4     ecut=    30.00 Ry     beta= 0.70
     Davidson diagonalization with overlap
     ethr =  1.49E-08,  avg # of iterations =  4.8

     total cpu time spent up to now is       38.6 secs

     total energy              =    -333.18338243 Ry
     estimated scf accuracy    <       0.00000047 Ry

     iteration #  5     ecut=    30.00 Ry     beta= 0.70
     Davidson diagonalization with overlap
     ethr =  1.07E-09,  avg # of iterations =  4.0

     total cpu time spent up to now is       39.0 secs

     total energy              =    -333.18338249 Ry
     estimated scf accuracy    <       0.00000014 Ry

     iteration #  6     ecut=    30.00 Ry     beta= 0.70
     Davidson diagonalization with overlap
     ethr =  3.27E-10,  avg # of iterations =  4.5

     total cpu time spent up to now is       39.4 secs

     total energy              =    -333.18338253 Ry
     estimated scf accuracy    <          5.5E-09 Ry

     iteration #  7     ecut=    30.00 Ry     beta= 0.70
     Davidson diagonalization with overlap
     ethr =  1.25E-11,  avg # of iterations =  4.0

     total cpu time spent up to now is       39.9 secs

     total energy              =    -333.18338253 Ry
     estimated scf accuracy    <          1.5E-09 Ry

     iteration #  8     ecut=    30.00 Ry     beta= 0.70
     Davidson diagonalization with overlap
     ethr =  3.46E-12,  avg # of iterations =  4.3

     total cpu time spent up to now is       40.4 secs

     End of self-consistent calculation

          k = 0.1250 0.1250 0.1250 (  1090 PWs)   bands (ev):

   -44.6378 -21.2596 -21.2452 -21.2442  -6.3277  -5.2584  -5.2403  -3.9573
    -3.9550  -3.9420  -3.7742  -3.7715   4.6627   7.3087   7.3175   8.0917
     9.1165   9.1468   9.8884   9.8889  10.0049  10.1538

          k = 0.1250 0.1250 0.3750 (  1095 PWs)   bands (ev):

   -44.6366 -21.3176 -21.2430 -21.2421  -5.9088  -5.1188  -5.0926  -4.0181
    -3.9523  -3.9384  -3.8699  -3.7435   3.9222   6.8393   7.3147   7.8550
     8.4747   8.7270   9.4121   9.9432  10.1425  10.8966

          k = 0.1250 0.3750 0.3750 (  1087 PWs)   bands (ev):

   -44.6353 -21.3141 -21.2989 -21.2404  -5.6934  -5.0059  -4.9332  -3.9916
    -3.9475  -3.8937  -3.8036  -3.6492   3.5562   6.7679   6.8962   7.1951
     7.5056   8.6985   9.4463   9.5039  10.0607  10.7266

          k = 0.3750 0.3750 0.3750 (  1082 PWs)   bands (ev):

   -44.6340 -21.3116 -21.2965 -21.2962  -5.3011  -5.1332  -5.1195  -3.9033
    -3.9005  -3.6124  -3.5481  -3.5405   4.1743   5.9446   5.9591   6.7157
     7.0619   7.0714   8.0021  10.6779  10.6995  10.7665

          k = 0.3750-0.1250 0.1250 (  1095 PWs)   bands (ev):

   -44.6366 -21.3025 -21.2574 -21.2425  -5.9218  -5.1345  -5.0711  -4.0173
    -3.9507  -3.9390  -3.8721  -3.7415   3.9279   6.8592   7.3575   7.8585
     8.4574   8.7721   9.3755   9.9472  10.0986  10.8739

          k = 0.3750-0.3750 0.1250 (  1087 PWs)   bands (ev):

   -44.6353 -21.2994 -21.2985 -21.2552  -5.7178  -4.9941  -4.9228  -3.9892
    -3.9464  -3.8905  -3.8024  -3.6593   3.5611   6.8263   6.8621   7.1911
     7.4967   8.6887   9.4787   9.5006  10.0485  10.7515

     highest occupied level (ev):    10.8966

!    total energy              =    -333.18338253 Ry
     estimated scf accuracy    <          1.5E-10 Ry

     The total energy is the sum of the following terms:
     one-electron contribution =     -76.53790150 Ry
     hartree contribution      =      66.26229622 Ry
     xc contribution           =     -49.65092237 Ry
     ewald contribution        =    -273.25685488 Ry

     convergence has been achieved in   8 iterations

     Forces acting on atoms (cartesian axes, Ry/au):

     atom    1 type  2   force =     0.00000000    0.00000000    0.01025544
     atom    2 type  3   force =     0.00000000    0.00000000   -0.01375902
     atom    3 type  1   force =     0.00000000    0.00000000    0.00368557
     atom    4 type  1   force =     0.00000000    0.00000000    0.00368557
     atom    5 type  1   force =     0.00000000    0.00000000   -0.00386757

     Total force =     0.006490     Total SCF correction =     0.000002


     Computing stress (Cartesian axis) and pressure

          total   stress  (Ry/bohr**3)                   (kbar)     P=      -12.82
  -0.00009767   0.00000000   0.00000000          -14.37        0.00        0.00
   0.00000000  -0.00009767   0.00000000            0.00      -14.37        0.00
   0.00000000   0.00000000  -0.00006619            0.00        0.00       -9.74

     Energy error            =      6.1E-05 Ry
     Gradient error          =      3.9E-03 Ry/Bohr

     number of scf cycles    =   7
     number of bfgs steps    =   6

     energy             old  =    -333.1833215745 Ry
     energy             new  =    -333.1833825289 Ry

     CASE: energy            _new < energy            _old

     new trust radius        =       0.0229723370 bohr
     new conv_thr            =       0.0000000010 Ry


ATOMIC_POSITIONS (angstrom)
Pb               0.0000000000        0.0000000000        0.0000000000    0   0   0
Ti               1.9375000000        1.9375000000        2.0343800000    0   0   0
O                0.0000000000        1.9375000000        1.9680933476
O                1.9375000000        0.0000000000        1.9680933476
O                1.9375000000        1.9375000000        0.0456683662


     Message from routine punch:
     Nothing written, as per user request (disk_io='none')
     NEW-OLD atomic charge density approx. for the potential

     total cpu time spent up to now is       41.9 secs

     Self-consistent Calculation

     iteration #  1     ecut=    30.00 Ry     beta= 0.70
     Davidson diagonalization with overlap
     ethr =  1.00E-06,  avg # of iterations =  6.7

     total cpu time spent up to now is       42.5 secs

     total energy              =    -333.18345150 Ry
     estimated scf accuracy    <       0.00011899 Ry

     iteration #  2     ecut=    30.00 Ry     beta= 0.70
     Davidson diagonalization with overlap
     ethr =  2.70E-07,  avg # of iterations =  2.7

     total cpu time spent up to now is       42.8 secs

     total energy              =    -333.18346585 Ry
     estimated scf accuracy    <       0.00001271 Ry

     iteration #  3     ecut=    30.00 Ry     beta= 0.70
     Davidson diagonalization with overlap
     ethr =  2.89E-08,  avg # of iterations =  4.8

     total cpu time spent up to now is       43.3 secs

     total energy              =    -333.18346763 Ry
     estimated scf accuracy    <       0.00001252 Ry

     iteration #  4     ecut=    30.00 Ry     beta= 0.70
     Davidson diagonalization with overlap
     ethr =  2.85E-08,  avg # of iterations =  4.2

     total cpu time spent up to now is       43.7 secs

     total energy              =    -333.18347056 Ry
     estimated scf accuracy    <       0.00000091 Ry

     iteration #  5     ecut=    30.00 Ry     beta= 0.70
     Davidson diagonalization with overlap
     ethr =  2.08E-09,  avg # of iterations =  4.7

     total cpu time spent up to now is       44.1 secs

     total energy              =    -333.18347068 Ry
     estimated scf accuracy    <       0.00000040 Ry

     iteration #  6     ecut=    30.00 Ry     beta= 0.70
     Davidson diagonalization with overlap
     ethr =  9.15E-10,  avg # of iterations =  4.3

     total cpu time spent up to now is       44.5 secs

     total energy              =    -333.18347076 Ry
     estimated scf accuracy    <       0.00000001 Ry

     iteration #  7     ecut=    30.00 Ry     beta= 0.70
     Davidson diagonalization with overlap
     ethr =  2.70E-11,  avg # of iterations =  5.2

     total cpu time spent up to now is       44.9 secs

     total energy              =    -333.18347077 Ry
     estimated scf accuracy    <          7.4E-09 Ry

     iteration #  8     ecut=    30.00 Ry     beta= 0.70
     Davidson diagonalization with overlap
     ethr =  1.67E-11,  avg # of iterations =  4.0

     total cpu time spent up to now is       45.3 secs

     End of self-consistent calculation

          k = 0.1250 0.1250 0.1250 (  1090 PWs)   bands (ev):

   -44.6453 -21.2622 -21.2531 -21.2521  -6.3289  -5.2565  -5.2461  -3.9554
    -3.9536  -3.9404  -3.7728  -3.7700   4.6641   7.3101   7.3159   8.0935
     9.1261   9.1486   9.8940   9.9157   9.9964  10.1423

          k = 0.1250 0.1250 0.3750 (  1095 PWs)   bands (ev):

   -44.6440 -21.3201 -21.2510 -21.2500  -5.9135  -5.1254  -5.0876  -4.0160
    -3.9503  -3.9369  -3.8683  -3.7418   3.9271   6.8413   7.3260   7.8544
     8.4675   8.7357   9.4074   9.9481  10.1354  10.8921

          k = 0.1250 0.3750 0.3750 (  1087 PWs)   bands (ev):

   -44.6428 -21.3166 -21.3068 -21.2483  -5.6980  -5.0043  -4.9338  -3.9897
    -3.9458  -3.8918  -3.8018  -3.6483   3.5584   6.7811   6.8819   7.1935
     7.5037   8.6938   9.4493   9.5016  10.0614  10.7308

          k = 0.3750 0.3750 0.3750 (  1082 PWs)   bands (ev):

   -44.6415 -21.3140 -21.3044 -21.3042  -5.3008  -5.1311  -5.1231  -3.9013
    -3.8992  -3.6106  -3.5459  -3.5398   4.1736   5.9481   5.9558   6.7178
     7.0540   7.0591   8.0045  10.6836  10.6979  10.7671

          k = 0.3750-0.1250 0.1250 (  1095 PWs)   bands (ev):

   -44.6440 -21.3105 -21.2600 -21.2504  -5.9213  -5.1352  -5.0750  -4.0158
    -3.9491  -3.9373  -3.8695  -3.7400   3.9290   6.8536   7.3545   7.8584
     8.4586   8.7662   9.3823   9.9497  10.1067  10.8761

          k = 0.3750-0.3750 0.1250 (  1087 PWs)   bands (ev):

   -44.6428 -21.3073 -21.3064 -21.2578  -5.7125  -4.9982  -4.9276  -3.9879
    -3.9445  -3.8886  -3.8004  -3.6564   3.5593   6.8230   6.8564   7.1915
     7.4971   8.6882   9.4750   9.4995  10.0522  10.7468

     highest occupied level (ev):    10.8921

!    total energy              =    -333.18347077 Ry
     estimated scf accuracy    <          6.3E-10 Ry

     The total energy is the sum of the following terms:
     one-electron contribution =     -76.54041073 Ry
     hartree contribution      =      66.26156446 Ry
     xc contribution           =     -49.65006384 Ry
     ewald contribution        =    -273.25456066 Ry

     convergence has been achieved in   8 iterations

     Forces acting on atoms (cartesian axes, Ry/au):

     atom    1 type  2   force =     0.00000000    0.00000000    0.00950169
     atom    2 type  3   force =     0.00000000    0.00000000   -0.01272178
     atom    3 type  1   force =     0.00000000    0.00000000    0.00393991
     atom    4 type  1   force =     0.00000000    0.00000000    0.00393991
     atom    5 type  1   force =     0.00000000    0.00000000   -0.00465974

     Total force =     0.007264     Total SCF correction =     0.000006


     Computing stress (Cartesian axis) and pressure

          total   stress  (Ry/bohr**3)                   (kbar)     P=      -13.34
  -0.00009651   0.00000000   0.00000000          -14.20        0.00        0.00
   0.00000000  -0.00009651   0.00000000            0.00      -14.20        0.00
   0.00000000   0.00000000  -0.00007912            0.00        0.00      -11.64

     Energy error            =      8.8E-05 Ry
     Gradient error          =      4.7E-03 Ry/Bohr

     number of scf cycles    =   8
     number of bfgs steps    =   7

     energy             old  =    -333.1833825289 Ry
     energy             new  =    -333.1834707701 Ry

     CASE: energy            _new < energy            _old

     new trust radius        =       0.0344585055 bohr
     new conv_thr            =       0.0000000010 Ry


ATOMIC_POSITIONS (angstrom)
Pb               0.0000000000        0.0000000000        0.0000000000    0   0   0
Ti               1.9375000000        1.9375000000        2.0343800000    0   0   0
O                0.0000000000        1.9375000000        1.9863280035
O                1.9375000000        0.0000000000        1.9863280035
O                1.9375000000        1.9375000000        0.0610375904


     Message from routine punch:
     Nothing written, as per user request (disk_io='none')
     NEW-OLD atomic charge density approx. for the potential

     total cpu time spent up to now is       46.8 secs

     Self-consistent Calculation

     iteration #  1     ecut=    30.00 Ry     beta= 0.70
     Davidson diagonalization with overlap
     ethr =  1.00E-06,  avg # of iterations =  7.7

     total cpu time spent up to now is       47.3 secs

     total energy              =    -333.18357339 Ry
     estimated scf accuracy    <       0.00025520 Ry

     iteration #  2     ecut=    30.00 Ry     beta= 0.70
     Davidson diagonalization with overlap
     ethr =  5.80E-07,  avg # of iterations =  2.3

     total cpu time spent up to now is       47.7 secs

     total energy              =    -333.18360556 Ry
     estimated scf accuracy    <       0.00001711 Ry

     iteration #  3     ecut=    30.00 Ry     beta= 0.70
     Davidson diagonalization with overlap
     ethr =  3.89E-08,  avg # of iterations =  4.5

     total cpu time spent up to now is       48.1 secs

     total energy              =    -333.18360829 Ry
     estimated scf accuracy    <       0.00000999 Ry

     iteration #  4     ecut=    30.00 Ry     beta= 0.70
     Davidson diagonalization with overlap
     ethr =  2.27E-08,  avg # of iterations =  4.3

     total cpu time spent up to now is       48.5 secs

     total energy              =    -333.18361077 Ry
     estimated scf accuracy    <       0.00000257 Ry

     iteration #  5     ecut=    30.00 Ry     beta= 0.70
     Davidson diagonalization with overlap
     ethr =  5.85E-09,  avg # of iterations =  4.2

     total cpu time spent up to now is       48.9 secs

     total energy              =    -333.18361125 Ry
     estimated scf accuracy    <       0.00000009 Ry

     iteration #  6     ecut=    30.00 Ry     beta= 0.70
     Davidson diagonalization with overlap
     ethr =  1.94E-10,  avg # of iterations =  5.7

     total cpu time spent up to now is       49.3 secs

     total energy              =    -333.18361129 Ry
     estimated scf accuracy    <       0.00000016 Ry

     iteration #  7     ecut=    30.00 Ry     beta= 0.70
     Davidson diagonalization with overlap
     ethr =  1.94E-10,  avg # of iterations =  4.3

     total cpu time spent up to now is       49.7 secs

     total energy              =    -333.18361130 Ry
     estimated scf accuracy    <       0.00000001 Ry

     iteration #  8     ecut=    30.00 Ry     beta= 0.70
     Davidson diagonalization with overlap
     ethr =  3.31E-11,  avg # of iterations =  4.7

     total cpu time spent up to now is       50.1 secs

     total energy              =    -333.18361131 Ry
     estimated scf accuracy    <          2.3E-09 Ry

     iteration #  9     ecut=    30.00 Ry     beta= 0.70
     Davidson diagonalization with overlap
     ethr =  5.31E-12,  avg # of iterations =  2.3

     total cpu time spent up to now is       50.5 secs

     End of self-consistent calculation

          k = 0.1250 0.1250 0.1250 (  1090 PWs)   bands (ev):

   -44.6542 -21.2657 -21.2624 -21.2616  -6.3312  -5.2548  -5.2540  -3.9526
    -3.9513  -3.9378  -3.7706  -3.7667   4.6661   7.3109   7.3139   8.0958
     9.1371   9.1497   9.9003   9.9498   9.9851  10.1256

          k = 0.1250 0.1250 0.3750 (  1095 PWs)   bands (ev):

   -44.6529 -21.3233 -21.2604 -21.2595  -5.9206  -5.1353  -5.0811  -4.0126
    -3.9473  -3.9344  -3.8650  -3.7391   3.9333   6.8441   7.3387   7.8525
     8.4586   8.7459   9.4005   9.9533  10.1253  10.8868

          k = 0.1250 0.3750 0.3750 (  1087 PWs)   bands (ev):

   -44.6517 -21.3198 -21.3163 -21.2578  -5.7049  -5.0041  -4.9342  -3.9867
    -3.9430  -3.8887  -3.7987  -3.6460   3.5615   6.7986   6.8617   7.1905
     7.5011   8.6870   9.4498   9.5001  10.0629  10.7355

          k = 0.3750 0.3750 0.3750 (  1082 PWs)   bands (ev):

   -44.6504 -21.3173 -21.3140 -21.3137  -5.3016  -5.1290  -5.1284  -3.8982
    -3.8968  -3.6080  -3.5423  -3.5379   4.1717   5.9510   5.9523   6.7195
     7.0438   7.0444   8.0097  10.6900  10.6937  10.7681

          k = 0.3750-0.1250 0.1250 (  1095 PWs)   bands (ev):

   -44.6529 -21.3200 -21.2634 -21.2599  -5.9215  -5.1369  -5.0812  -4.0133
    -3.9465  -3.9346  -3.8648  -3.7371   3.9304   6.8458   7.3499   7.8581
     8.4590   8.7586   9.3898   9.9517  10.1155  10.8793

          k = 0.3750-0.3750 0.1250 (  1087 PWs)   bands (ev):

   -44.6517 -21.3169 -21.3159 -21.2611  -5.7058  -5.0049  -4.9357  -3.9858
    -3.9411  -3.8847  -3.7964  -3.6523   3.5562   6.8180   6.8488   7.1916
     7.4977   8.6881   9.4700   9.4979  10.0576  10.7395

     highest occupied level (ev):    10.8868

!    total energy              =    -333.18361131 Ry
     estimated scf accuracy    <          7.6E-10 Ry

     The total energy is the sum of the following terms:
     one-electron contribution =     -76.56204077 Ry
     hartree contribution      =      66.27010150 Ry
     xc contribution           =     -49.64943777 Ry
     ewald contribution        =    -273.24223428 Ry

     convergence has been achieved in   9 iterations

     Forces acting on atoms (cartesian axes, Ry/au):

     atom    1 type  2   force =     0.00000000    0.00000000    0.00838013
     atom    2 type  3   force =     0.00000000    0.00000000   -0.01170838
     atom    3 type  1   force =     0.00000000    0.00000000    0.00423108
     atom    4 type  1   force =     0.00000000    0.00000000    0.00423108
     atom    5 type  1   force =     0.00000000    0.00000000   -0.00513390

     Total force =     0.007884     Total SCF correction =     0.000004


     Computing stress (Cartesian axis) and pressure

          total   stress  (Ry/bohr**3)                   (kbar)     P=      -13.62
  -0.00009337   0.00000000   0.00000000          -13.73        0.00        0.00
   0.00000000  -0.00009337   0.00000000            0.00      -13.73        0.00
   0.00000000   0.00000000  -0.00009111            0.00        0.00      -13.40

     Energy error            =      1.4E-04 Ry
     Gradient error          =      5.1E-03 Ry/Bohr

     number of scf cycles    =   9
     number of bfgs steps    =   8

     energy             old  =    -333.1834707701 Ry
     energy             new  =    -333.1836113088 Ry

     CASE: energy            _new < energy            _old


     WARNING: bfgs curvature condition failed, Theta= 0.462
     new trust radius        =       0.0516877583 bohr
     new conv_thr            =       0.0000000014 Ry


ATOMIC_POSITIONS (angstrom)
Pb               0.0000000000        0.0000000000        0.0000000000    0   0   0
Ti               1.9375000000        1.9375000000        2.0343800000    0   0   0
O                0.0000000000        1.9375000000        2.0136799872
O                1.9375000000        0.0000000000        2.0136799872
O                1.9375000000        1.9375000000        0.0844749074


     Message from routine punch:
     Nothing written, as per user request (disk_io='none')
     NEW-OLD atomic charge density approx. for the potential

     total cpu time spent up to now is       51.9 secs

     Self-consistent Calculation

     iteration #  1     ecut=    30.00 Ry     beta= 0.70
     Davidson diagonalization with overlap
     ethr =  1.00E-06,  avg # of iterations =  9.2

     total cpu time spent up to now is       52.5 secs

     total energy              =    -333.18375476 Ry
     estimated scf accuracy    <       0.00057967 Ry

     iteration #  2     ecut=    30.00 Ry     beta= 0.70
     Davidson diagonalization with overlap
     ethr =  1.32E-06,  avg # of iterations =  2.2

     total cpu time spent up to now is       52.9 secs

     total energy              =    -333.18382688 Ry
     estimated scf accuracy    <       0.00003141 Ry

     iteration #  3     ecut=    30.00 Ry     beta= 0.70
     Davidson diagonalization with overlap
     ethr =  7.14E-08,  avg # of iterations =  4.0

     total cpu time spent up to now is       53.4 secs

     total energy              =    -333.18383169 Ry
     estimated scf accuracy    <       0.00001515 Ry

     iteration #  4     ecut=    30.00 Ry     beta= 0.70
     Davidson diagonalization with overlap
     ethr =  3.44E-08,  avg # of iterations =  4.8

     total cpu time spent up to now is       53.8 secs

     total energy              =    -333.18383514 Ry
     estimated scf accuracy    <       0.00000562 Ry

     iteration #  5     ecut=    30.00 Ry     beta= 0.70
     Davidson diagonalization with overlap
     ethr =  1.28E-08,  avg # of iterations =  4.0

     total cpu time spent up to now is       54.2 secs

     total energy              =    -333.18383631 Ry
     estimated scf accuracy    <       0.00000034 Ry

     iteration #  6     ecut=    30.00 Ry     beta= 0.70
     Davidson diagonalization with overlap
     ethr =  7.64E-10,  avg # of iterations =  4.7

     total cpu time spent up to now is       54.7 secs

     total energy              =    -333.18383639 Ry
     estimated scf accuracy    <       0.00000026 Ry

     iteration #  7     ecut=    30.00 Ry     beta= 0.70
     Davidson diagonalization with overlap
     ethr =  5.87E-10,  avg # of iterations =  3.7

     total cpu time spent up to now is       55.0 secs

     total energy              =    -333.18383640 Ry
     estimated scf accuracy    <       0.00000004 Ry

     iteration #  8     ecut=    30.00 Ry     beta= 0.70
     Davidson diagonalization with overlap
     ethr =  9.12E-11,  avg # of iterations =  5.3

     total cpu time spent up to now is       55.5 secs

     total energy              =    -333.18383643 Ry
     estimated scf accuracy    <       0.00000005 Ry

     iteration #  9     ecut=    30.00 Ry     beta= 0.70
     Davidson diagonalization with overlap
     ethr =  9.12E-11,  avg # of iterations =  1.5

     total cpu time spent up to now is       55.8 secs

     total energy              =    -333.18383642 Ry
     estimated scf accuracy    <       0.00000002 Ry

     iteration # 10     ecut=    30.00 Ry     beta= 0.70
     Davidson diagonalization with overlap
     ethr =  4.75E-11,  avg # of iterations =  4.2

     total cpu time spent up to now is       56.2 secs

     End of self-consistent calculation

          k = 0.1250 0.1250 0.1250 (  1090 PWs)   bands (ev):

   -44.6633 -21.2727 -21.2715 -21.2693  -6.3362  -5.2677  -5.2513  -3.9477
    -3.9471  -3.9329  -3.7668  -3.7596   4.6686   7.3094   7.3117   8.0986
     9.1466   9.1484   9.9037   9.9716   9.9787  10.1115

          k = 0.1250 0.1250 0.3750 (  1095 PWs)   bands (ev):

   -44.6621 -21.3272 -21.2704 -21.2694  -5.9319  -5.1503  -5.0729  -4.0064
    -3.9419  -3.9297  -3.8577  -3.7347   3.9407   6.8477   7.3484   7.8469
     8.4499   8.7557   9.3902   9.9565  10.1111  10.8821

          k = 0.1250 0.3750 0.3750 (  1087 PWs)   bands (ev):

   -44.6609 -21.3264 -21.3236 -21.2677  -5.7156  -5.0089  -4.9339  -3.9812
    -3.9381  -3.8832  -3.7930  -3.6401   3.5663   6.8134   6.8399   7.1855
     7.4970   8.6775   9.4443   9.5003  10.0663  10.7390

          k = 0.3750 0.3750 0.3750 (  1082 PWs)   bands (ev):

   -44.6596 -21.3240 -21.3237 -21.3211  -5.3053  -5.1389  -5.1252  -3.8928
    -3.8922  -3.6039  -3.5362  -3.5329   4.1671   5.9437   5.9568   6.7188
     7.0275   7.0347   8.0211  10.6847  10.6951  10.7686

          k = 0.3750-0.1250 0.1250 (  1095 PWs)   bands (ev):

   -44.6621 -21.3300 -21.2700 -21.2672  -5.9239  -5.1414  -5.0910  -4.0088
    -3.9417  -3.9294  -3.8559  -3.7313   3.9322   6.8357   7.3430   7.8571
     8.4567   8.7502   9.3956   9.9513  10.1211  10.8844

          k = 0.3750-0.3750 0.1250 (  1087 PWs)   bands (ev):

   -44.6609 -21.3268 -21.3259 -21.2652  -5.6985  -5.0166  -4.9499  -3.9815
    -3.9346  -3.8763  -3.7880  -3.6462   3.5505   6.8104   6.8392   7.1910
     7.4994   8.6886   9.4640   9.4949  10.0655  10.7279

     highest occupied level (ev):    10.8844

!    total energy              =    -333.18383643 Ry
     estimated scf accuracy    <          2.5E-10 Ry

     The total energy is the sum of the following terms:
     one-electron contribution =     -76.62441402 Ry
     hartree contribution      =      66.29882229 Ry
     xc contribution           =     -49.64971342 Ry
     ewald contribution        =    -273.20853128 Ry

     convergence has been achieved in  10 iterations

     Forces acting on atoms (cartesian axes, Ry/au):

     atom    1 type  2   force =     0.00000000    0.00000000    0.00684961
     atom    2 type  3   force =     0.00000000    0.00000000   -0.01093227
     atom    3 type  1   force =     0.00000000    0.00000000    0.00474594
     atom    4 type  1   force =     0.00000000    0.00000000    0.00474594
     atom    5 type  1   force =     0.00000000    0.00000000   -0.00540923

     Total force =     0.008620     Total SCF correction =     0.000004


     Computing stress (Cartesian axis) and pressure

          total   stress  (Ry/bohr**3)                   (kbar)     P=      -13.58
  -0.00008901   0.00000000   0.00000000          -13.09        0.00        0.00
   0.00000000  -0.00008901   0.00000000            0.00      -13.09        0.00
   0.00000000   0.00000000  -0.00009885            0.00        0.00      -14.54

     Energy error            =      2.3E-04 Ry
     Gradient error          =      5.4E-03 Ry/Bohr

     number of scf cycles    =  10
     number of bfgs steps    =   9

     energy             old  =    -333.1836113088 Ry
     energy             new  =    -333.1838364269 Ry

     CASE: energy            _new < energy            _old


     WARNING: bfgs curvature condition failed, Theta= 0.511
     new trust radius        =       0.0108839627 bohr
     new conv_thr            =       0.0000000023 Ry


ATOMIC_POSITIONS (angstrom)
Pb               0.0000000000        0.0000000000        0.0000000000    0   0   0
Ti               1.9375000000        1.9375000000        2.0343800000    0   0   0
O                0.0000000000        1.9375000000        2.0194395322
O                1.9375000000        0.0000000000        2.0194395322
O                1.9375000000        1.9375000000        0.0887368506


     Message from routine punch:
     Nothing written, as per user request (disk_io='none')
     NEW-OLD atomic charge density approx. for the potential

     total cpu time spent up to now is       57.7 secs

     Self-consistent Calculation

     iteration #  1     ecut=    30.00 Ry     beta= 0.70
     Davidson diagonalization with overlap
     ethr =  1.00E-06,  avg # of iterations =  4.7

     Threshold (ethr) on eigenvalues was too large:
     Diagonalizing with lowered threshold

     Davidson diagonalization with overlap
     ethr =  4.72E-08,  avg # of iterations =  4.5

     total cpu time spent up to now is       58.6 secs

     total energy              =    -333.18389377 Ry
     estimated scf accuracy    <       0.00002265 Ry

     iteration #  2     ecut=    30.00 Ry     beta= 0.70
     Davidson diagonalization with overlap
     ethr =  5.15E-08,  avg # of iterations =  2.0

     total cpu time spent up to now is       59.0 secs

     total energy              =    -333.18389662 Ry
     estimated scf accuracy    <       0.00000086 Ry

     iteration #  3     ecut=    30.00 Ry     beta= 0.70
     Davidson diagonalization with overlap
     ethr =  1.95E-09,  avg # of iterations =  4.0

     total cpu time spent up to now is       59.4 secs

     total energy              =    -333.18389679 Ry
     estimated scf accuracy    <       0.00000021 Ry

     iteration #  4     ecut=    30.00 Ry     beta= 0.70
     Davidson diagonalization with overlap
     ethr =  4.71E-10,  avg # of iterations =  4.7

     total cpu time spent up to now is       59.8 secs

     total energy              =    -333.18389683 Ry
     estimated scf accuracy    <       0.00000015 Ry

     iteration #  5     ecut=    30.00 Ry     beta= 0.70
     Davidson diagonalization with overlap
     ethr =  3.52E-10,  avg # of iterations =  4.0

     total cpu time spent up to now is       60.2 secs

     total energy              =    -333.18389686 Ry
     estimated scf accuracy    <          7.1E-09 Ry

     iteration #  6     ecut=    30.00 Ry     beta= 0.70
     Davidson diagonalization with overlap
     ethr =  1.60E-11,  avg # of iterations =  4.7

     total cpu time spent up to now is       60.6 secs

     End of self-consistent calculation

          k = 0.1250 0.1250 0.1250 (  1090 PWs)   bands (ev):

   -44.6646 -21.2741 -21.2728 -21.2700  -6.3374  -5.2702  -5.2510  -3.9466
    -3.9460  -3.9317  -3.7660  -3.7577   4.6690   7.3086   7.3114   8.0989
     9.1475   9.1476   9.9033   9.9696   9.9793  10.1120

          k = 0.1250 0.1250 0.3750 (  1095 PWs)   bands (ev):

   -44.6634 -21.3279 -21.2717 -21.2707  -5.9343  -5.1533  -5.0717  -4.0050
    -3.9407  -3.9286  -3.8558  -3.7338   3.9420   6.8482   7.3488   7.8454
     8.4489   8.7566   9.3881   9.9565  10.1084  10.8817

          k = 0.1250 0.3750 0.3750 (  1087 PWs)   bands (ev):

   -44.6621 -21.3278 -21.3243 -21.2691  -5.7177  -5.0105  -4.9340  -3.9800
    -3.9369  -3.8819  -3.7916  -3.6385   3.5672   6.8115   6.8399   7.1844
     7.4961   8.6757   9.4428   9.5001  10.0672  10.7391

          k = 0.3750 0.3750 0.3750 (  1082 PWs)   bands (ev):

   -44.6608 -21.3253 -21.3250 -21.3218  -5.3064  -5.1411  -5.1248  -3.8916
    -3.8911  -3.6031  -3.5348  -3.5315   4.1658   5.9423   5.9573   6.7181
     7.0253   7.0333   8.0240  10.6826  10.6954  10.7684

          k = 0.3750-0.1250 0.1250 (  1095 PWs)   bands (ev):

   -44.6633 -21.3313 -21.2713 -21.2679  -5.9247  -5.1426  -5.0930  -4.0078
    -3.9406  -3.9281  -3.8537  -3.7298   3.9325   6.8339   7.3417   7.8567
[...]

     iteration #  7     ecut=    30.00 Ry     beta= 0.70
     Davidson diagonalization with overlap
     ethr =  1.37E-09,  avg # of iterations =  4.2

     total cpu time spent up to now is      145.0 secs

     total energy              =    -333.18584900 Ry
     estimated scf accuracy    <       0.00000001 Ry

     iteration #  8     ecut=    30.00 Ry     beta= 0.70
     Davidson diagonalization with overlap
     ethr =  3.10E-11,  avg # of iterations =  4.8

     total cpu time spent up to now is      145.5 secs

     total energy              =    -333.18584899 Ry
     estimated scf accuracy    <       0.00000002 Ry

     iteration #  9     ecut=    30.00 Ry     beta= 0.70
     Davidson diagonalization with overlap
     ethr =  3.10E-11,  avg # of iterations =  4.7

     total cpu time spent up to now is      145.9 secs

     End of self-consistent calculation

          k = 0.1250 0.1250 0.1250 (  1090 PWs)   bands (ev):

   -44.6502 -21.2859 -21.2585 -21.2576  -6.4153  -5.3576  -5.2510  -3.8861
    -3.8853  -3.8621  -3.7161  -3.6354   4.6871   7.2069   7.3048   8.0650
     9.0566   9.0795   9.6821   9.7827   9.9487  10.2523

          k = 0.1250 0.1250 0.3750 (  1095 PWs)   bands (ev):

   -44.6490 -21.3438 -21.2564 -21.2555  -6.0345  -5.2579  -5.0569  -3.9307
    -3.8726  -3.8604  -3.7297  -3.6800   3.9616   6.8400   7.1441   7.7214
     8.5456   8.6741   9.3522   9.8509  10.0335  10.9486

          k = 0.1250 0.3750 0.3750 (  1087 PWs)   bands (ev):

   -44.6477 -21.3402 -21.3117 -21.2538  -5.8016  -5.1297  -4.9553  -3.9124
    -3.8690  -3.8123  -3.7083  -3.5286   3.6084   6.6072   6.9402   7.1405
     7.4407   8.6386   9.3905   9.4421  10.1433  10.6730

          k = 0.3750 0.3750 0.3750 (  1082 PWs)   bands (ev):

   -44.6464 -21.3376 -21.3093 -21.3091  -5.3945  -5.2453  -5.1338  -3.8242
    -3.8218  -3.5594  -3.4593  -3.4361   4.0870   5.9015   5.9491   6.6279
     7.1050   7.1130   8.2061  10.5900  10.6231  10.7076

          k = 0.3750-0.1250 0.1250 (  1095 PWs)   bands (ev):

   -44.6490 -21.3155 -21.2835 -21.2560  -5.9970  -5.2270  -5.1694  -3.9429
    -3.8763  -3.8567  -3.7378  -3.6329   3.9391   6.8107   7.3100   7.8181
     8.3728   8.7855   9.3217   9.8574   9.9798  10.9207

          k = 0.3750-0.3750 0.1250 (  1087 PWs)   bands (ev):

   -44.6477 -21.3124 -21.3114 -21.2811  -5.7217  -5.1425  -5.1033  -3.9130
    -3.8491  -3.7527  -3.6541  -3.5865   3.4836   6.7545   6.8290   7.1950
     7.5522   8.7146   9.4729   9.4830  10.1182  10.6285

     highest occupied level (ev):    10.9486

!    total energy              =    -333.18584900 Ry
     estimated scf accuracy    <          5.8E-11 Ry

     The total energy is the sum of the following terms:
     one-electron contribution =     -77.73671986 Ry
     hartree contribution      =      66.86283307 Ry
     xc contribution           =     -49.67605519 Ry
     ewald contribution        =    -272.63590702 Ry

     convergence has been achieved in   9 iterations

     Forces acting on atoms (cartesian axes, Ry/au):

     atom    1 type  2   force =     0.00000000    0.00000000   -0.00066778
     atom    2 type  3   force =     0.00000000    0.00000000   -0.00386889
     atom    3 type  1   force =     0.00000000    0.00000000   -0.00164971
     atom    4 type  1   force =     0.00000000    0.00000000   -0.00164971
     atom    5 type  1   force =     0.00000000    0.00000000    0.00783610

     Total force =     0.008176     Total SCF correction =     0.000002


     Computing stress (Cartesian axis) and pressure

          total   stress  (Ry/bohr**3)                   (kbar)     P=       -0.90
  -0.00005355   0.00000000   0.00000000           -7.88        0.00        0.00
   0.00000000  -0.00005355   0.00000000            0.00       -7.88        0.00
   0.00000000   0.00000000   0.00008866            0.00        0.00       13.04

     Energy error            =      2.4E-04 Ry
     Gradient error          =      7.8E-03 Ry/Bohr

     number of scf cycles    =  27
     number of bfgs steps    =  26

     energy             old  =    -333.1856135408 Ry
     energy             new  =    -333.1858489982 Ry

     CASE: energy            _new < energy            _old

     new trust radius        =       0.0358675488 bohr
     new conv_thr            =       0.0000000024 Ry


ATOMIC_POSITIONS (angstrom)
Pb               0.0000000000        0.0000000000        0.0000000000    0   0   0
Ti               1.9375000000        1.9375000000        2.0343800000    0   0   0
O                0.0000000000        1.9375000000        2.2077287882
O                1.9375000000        0.0000000000        2.2077287882
O                1.9375000000        1.9375000000        0.2200098912


     Message from routine punch:
     Nothing written, as per user request (disk_io='none')
     NEW-OLD atomic charge density approx. for the potential

     total cpu time spent up to now is      147.5 secs

     Self-consistent Calculation

     iteration #  1     ecut=    30.00 Ry     beta= 0.70
     Davidson diagonalization with overlap
     ethr =  1.00E-06,  avg # of iterations =  7.2

     total cpu time spent up to now is      148.0 secs

     total energy              =    -333.18589943 Ry
     estimated scf accuracy    <       0.00027132 Ry

     iteration #  2     ecut=    30.00 Ry     beta= 0.70
     Davidson diagonalization with overlap
     ethr =  6.17E-07,  avg # of iterations =  4.7

     total cpu time spent up to now is      148.4 secs

     total energy              =    -333.18590031 Ry
     estimated scf accuracy    <       0.00020361 Ry

     iteration #  3     ecut=    30.00 Ry     beta= 0.70
     Davidson diagonalization with overlap
     ethr =  4.63E-07,  avg # of iterations =  4.5

     total cpu time spent up to now is      148.9 secs

     total energy              =    -333.18595130 Ry
     estimated scf accuracy    <       0.00006331 Ry

     iteration #  4     ecut=    30.00 Ry     beta= 0.70
     Davidson diagonalization with overlap
     ethr =  1.44E-07,  avg # of iterations =  3.0

     total cpu time spent up to now is      149.3 secs

     total energy              =    -333.18595802 Ry
     estimated scf accuracy    <       0.00000449 Ry

     iteration #  5     ecut=    30.00 Ry     beta= 0.70
     Davidson diagonalization with overlap
     ethr =  1.02E-08,  avg # of iterations =  5.5

     total cpu time spent up to now is      149.7 secs

     total energy              =    -333.18596183 Ry
     estimated scf accuracy    <       0.00000500 Ry

     iteration #  6     ecut=    30.00 Ry     beta= 0.70
     Davidson diagonalization with overlap
     ethr =  1.02E-08,  avg # of iterations =  1.8

     total cpu time spent up to now is      150.1 secs

     total energy              =    -333.18596117 Ry
     estimated scf accuracy    <       0.00000273 Ry

     iteration #  7     ecut=    30.00 Ry     beta= 0.70
     Davidson diagonalization with overlap
     ethr =  6.21E-09,  avg # of iterations =  4.2

     total cpu time spent up to now is      150.5 secs

     total energy              =    -333.18596173 Ry
     estimated scf accuracy    <       0.00000008 Ry

     iteration #  8     ecut=    30.00 Ry     beta= 0.70
     Davidson diagonalization with overlap
     ethr =  1.74E-10,  avg # of iterations =  5.8

     total cpu time spent up to now is      150.9 secs

     total energy              =    -333.18596178 Ry
     estimated scf accuracy    <       0.00000002 Ry

     iteration #  9     ecut=    30.00 Ry     beta= 0.70
     Davidson diagonalization with overlap
     ethr =  5.61E-11,  avg # of iterations =  2.0

     total cpu time spent up to now is      151.3 secs

     total energy              =    -333.18596178 Ry
     estimated scf accuracy    <       0.00000001 Ry

     iteration # 10     ecut=    30.00 Ry     beta= 0.70
     Davidson diagonalization with overlap
     ethr =  2.72E-11,  avg # of iterations =  4.3

     total cpu time spent up to now is      151.8 secs

     End of self-consistent calculation

          k = 0.1250 0.1250 0.1250 (  1090 PWs)   bands (ev):

   -44.6285 -21.2808 -21.2365 -21.2356  -6.4195  -5.3606  -5.2566  -3.8841
    -3.8828  -3.8595  -3.7156  -3.6263   4.6849   7.2010   7.3046   8.0705
     9.0273   9.0679   9.6343   9.7672   9.9497  10.2461

          k = 0.1250 0.1250 0.3750 (  1095 PWs)   bands (ev):

   -44.6273 -21.3389 -21.2343 -21.2334  -6.0369  -5.2617  -5.0643  -3.9279
    -3.8696  -3.8578  -3.7201  -3.6798   3.9531   6.8374   7.1212   7.7202
     8.5480   8.6500   9.3456   9.8361  10.0324  10.9567

          k = 0.1250 0.3750 0.3750 (  1087 PWs)   bands (ev):

   -44.6260 -21.3353 -21.2896 -21.2317  -5.8037  -5.1372  -4.9652  -3.9099
    -3.8661  -3.8102  -3.7037  -3.5198   3.6083   6.5819   6.9465   7.1456
     7.4351   8.6415   9.3844   9.4224  10.1449  10.6593

          k = 0.3750 0.3750 0.3750 (  1082 PWs)   bands (ev):

   -44.6247 -21.3327 -21.2873 -21.2871  -5.3997  -5.2511  -5.1406  -3.8221
    -3.8181  -3.5615  -3.4556  -3.4283   4.0782   5.8968   5.9430   6.6212
     7.1162   7.1326   8.2194  10.5856  10.6015  10.6908

          k = 0.3750-0.1250 0.1250 (  1095 PWs)   bands (ev):

   -44.6273 -21.2935 -21.2783 -21.2339  -6.0023  -5.2341  -5.1772  -3.9399
    -3.8737  -3.8547  -3.7302  -3.6259   3.9382   6.8138   7.3051   7.8185
     8.3631   8.7898   9.2936   9.8428   9.9538  10.9182

          k = 0.3750-0.3750 0.1250 (  1087 PWs)   bands (ev):

   -44.6260 -21.2906 -21.2894 -21.2759  -5.7295  -5.1508  -5.1118  -3.9093
    -3.8457  -3.7454  -3.6443  -3.5869   3.4780   6.7540   6.8375   7.1876
     7.5499   8.7156   9.4637   9.4804  10.1188  10.6236

     highest occupied level (ev):    10.9567

!    total energy              =    -333.18596178 Ry
     estimated scf accuracy    <          1.2E-09 Ry

     The total energy is the sum of the following terms:
     one-electron contribution =     -77.90966812 Ry
     hartree contribution      =      66.95465286 Ry
     xc contribution           =     -49.68291994 Ry
     ewald contribution        =    -272.54802658 Ry

     convergence has been achieved in  10 iterations

     Forces acting on atoms (cartesian axes, Ry/au):

     atom    1 type  2   force =     0.00000000    0.00000000   -0.00081411
     atom    2 type  3   force =     0.00000000    0.00000000    0.00093412
     atom    3 type  1   force =     0.00000000    0.00000000   -0.00006623
     atom    4 type  1   force =     0.00000000    0.00000000   -0.00006623
     atom    5 type  1   force =     0.00000000    0.00000000    0.00001247

     Total force =     0.000094     Total SCF correction =     0.000012
     SCF correction compared to forces is large: reduce conv_thr to get better values


     Computing stress (Cartesian axis) and pressure

          total   stress  (Ry/bohr**3)                   (kbar)     P=        3.10
  -0.00004497   0.00000000   0.00000000           -6.61        0.00        0.00
   0.00000000  -0.00004497   0.00000000            0.00       -6.61        0.00
   0.00000000   0.00000000   0.00015322            0.00        0.00       22.54

     Energy error            =      1.1E-04 Ry
     Gradient error          =      6.6E-05 Ry/Bohr

     number of scf cycles    =  28
     number of bfgs steps    =  27

     energy             old  =    -333.1858489982 Ry
     energy             new  =    -333.1859617769 Ry

     CASE: energy            _new < energy            _old

     new trust radius        =       0.0014838153 bohr
     new conv_thr            =       0.0000000010 Ry


ATOMIC_POSITIONS (angstrom)
Pb               0.0000000000        0.0000000000        0.0000000000    0   0   0
Ti               1.9375000000        1.9375000000        2.0343800000    0   0   0
O                0.0000000000        1.9375000000        2.2069435869
O                1.9375000000        0.0000000000        2.2069435869
O                1.9375000000        1.9375000000        0.2195400956


     Message from routine punch:
     Nothing written, as per user request (disk_io='none')
     NEW-OLD atomic charge density approx. for the potential

     total cpu time spent up to now is      153.3 secs

     Self-consistent Calculation

     iteration #  1     ecut=    30.00 Ry     beta= 0.70
     Davidson diagonalization with overlap
     ethr =  1.00E-06,  avg # of iterations =  2.0

     Threshold (ethr) on eigenvalues was too large:
     Diagonalizing with lowered threshold

     Davidson diagonalization with overlap
     ethr =  4.63E-10,  avg # of iterations =  6.7

     total cpu time spent up to now is      154.1 secs

     total energy              =    -333.18596290 Ry
     estimated scf accuracy    <       0.00000043 Ry

     iteration #  2     ecut=    30.00 Ry     beta= 0.70
     Davidson diagonalization with overlap
     ethr =  9.88E-10,  avg # of iterations =  4.2

     total cpu time spent up to now is      154.6 secs

     total energy              =    -333.18596292 Ry
     estimated scf accuracy    <       0.00000016 Ry

     iteration #  3     ecut=    30.00 Ry     beta= 0.70
     Davidson diagonalization with overlap
     ethr =  3.63E-10,  avg # of iterations =  5.3

     total cpu time spent up to now is      155.0 secs

     total energy              =    -333.18596296 Ry
     estimated scf accuracy    <       0.00000016 Ry

     iteration #  4     ecut=    30.00 Ry     beta= 0.70
     Davidson diagonalization with overlap
     ethr =  3.54E-10,  avg # of iterations =  4.0

     total cpu time spent up to now is      155.5 secs

     End of self-consistent calculation

          k = 0.1250 0.1250 0.1250 (  1090 PWs)   bands (ev):

   -44.6290 -21.2808 -21.2370 -21.2361  -6.4190  -5.3601  -5.2565  -3.8844
    -3.8831  -3.8600  -3.7158  -3.6272   4.6848   7.2018   7.3047   8.0708
     9.0282   9.0685   9.6360   9.7681   9.9498  10.2461

          k = 0.1250 0.1250 0.3750 (  1095 PWs)   bands (ev):

   -44.6278 -21.3390 -21.2348 -21.2339  -6.0364  -5.2612  -5.0641  -3.9283
    -3.8700  -3.8582  -3.7210  -3.6801   3.9531   6.8377   7.1229   7.7209
     8.5473   8.6509   9.3457   9.8369  10.0327  10.9561

          k = 0.1250 0.3750 0.3750 (  1087 PWs)   bands (ev):

   -44.6265 -21.3353 -21.2902 -21.2323  -5.8033  -5.1365  -4.9648  -3.9103
    -3.8665  -3.8106  -3.7043  -3.5205   3.6081   6.5831   6.9462   7.1457
     7.4356   8.6415   9.3846   9.4230  10.1445  10.6598

          k = 0.3750 0.3750 0.3750 (  1082 PWs)   bands (ev):

   -44.6252 -21.3328 -21.2878 -21.2876  -5.3991  -5.2505  -5.1404  -3.8225
    -3.8186  -3.5617  -3.4561  -3.4289   4.0788   5.8970   5.9432   6.6219
     7.1154   7.1315   8.2183  10.5861  10.6023  10.6914

          k = 0.3750-0.1250 0.1250 (  1095 PWs)   bands (ev):

   -44.6278 -21.2941 -21.2784 -21.2344  -6.0018  -5.2336  -5.1768  -3.9403
    -3.8740  -3.8551  -3.7309  -3.6266   3.9382   6.8137   7.3052   7.8189
     8.3636   8.7894   9.2944   9.8437   9.9549  10.9181

          k = 0.3750-0.3750 0.1250 (  1087 PWs)   bands (ev):

   -44.6265 -21.2911 -21.2899 -21.2760  -5.7290  -5.1501  -5.1109  -3.9098
    -3.8462  -3.7461  -3.6451  -3.5872   3.4784   6.7542   6.8373   7.1877
     7.5496   8.7156   9.4639   9.4802  10.1185  10.6241

     highest occupied level (ev):    10.9561

!    total energy              =    -333.18596298 Ry
     estimated scf accuracy    <          7.9E-10 Ry

     The total energy is the sum of the following terms:
     one-electron contribution =     -77.90223449 Ry
     hartree contribution      =      66.95070942 Ry
     xc contribution           =     -49.68270531 Ry
     ewald contribution        =    -272.55173260 Ry

     convergence has been achieved in   4 iterations

     Forces acting on atoms (cartesian axes, Ry/au):

     atom    1 type  2   force =     0.00000000    0.00000000   -0.00087632
     atom    2 type  3   force =     0.00000000    0.00000000    0.00082640
     atom    3 type  1   force =     0.00000000    0.00000000    0.00000855
     atom    4 type  1   force =     0.00000000    0.00000000    0.00000855
     atom    5 type  1   force =     0.00000000    0.00000000    0.00003282

     Total force =     0.000035     Total SCF correction =     0.000076
     SCF correction compared to forces is large: reduce conv_thr to get better values


     Computing stress (Cartesian axis) and pressure

          total   stress  (Ry/bohr**3)                   (kbar)     P=        2.94
  -0.00004559   0.00000000   0.00000000           -6.71        0.00        0.00
   0.00000000  -0.00004559   0.00000000            0.00       -6.71        0.00
   0.00000000   0.00000000   0.00015105            0.00        0.00       22.22

     Energy error            =      1.2E-06 Ry
     Gradient error          =      3.3E-05 Ry/Bohr

     bfgs converged in  29 scf cycles and  28 bfgs steps
     (criteria: energy <  1.0E-04 Ry, force <  1.0E-03 Ry/Bohr)

     End of BFGS Geometry Optimization

     Final energy             =    -333.1859629822 Ry

     File /home/bond/Work/Lab4/Problem2/PbTiO3_a_3.875_ecut_30_nk_4_displ_0.025/pwscf.bfgs deleted, as requested
Begin final coordinates

ATOMIC_POSITIONS (angstrom)
Pb               0.0000000000        0.0000000000        0.0000000000    0   0   0
Ti               1.9375000000        1.9375000000        2.0343800000    0   0   0
O                0.0000000000        1.9375000000        2.2069435869
O                1.9375000000        0.0000000000        2.2069435869
O                1.9375000000        1.9375000000        0.2195400956
End final coordinates


     Message from routine punch:
     Nothing written, as per user request (disk_io='none')

     init_run     :      1.13s CPU      1.39s WALL (       1 calls)
     electrons    :     95.41s CPU    110.89s WALL (      29 calls)
     update_pot   :      0.18s CPU      0.19s WALL (      28 calls)
     forces       :      3.96s CPU      4.70s WALL (      29 calls)
     stress       :     33.77s CPU     36.00s WALL (      29 calls)

     Called by init_run:
     wfcinit      :      0.08s CPU      0.09s WALL (       1 calls)
     potinit      :      0.07s CPU      0.08s WALL (       1 calls)
     hinit0       :      0.78s CPU      1.00s WALL (       1 calls)

     Called by electrons:
     c_bands      :     42.19s CPU     45.40s WALL (     255 calls)
     sum_band     :     30.59s CPU     37.05s WALL (     255 calls)
     v_of_rho     :      0.79s CPU      0.82s WALL (     271 calls)
     newd         :     23.85s CPU     30.15s WALL (     271 calls)
     mix_rho      :      0.38s CPU      0.41s WALL (     255 calls)

     Called by c_bands:
     init_us_2    :      1.27s CPU      1.38s WALL (    3414 calls)
     cegterg      :     39.49s CPU     42.54s WALL (    1530 calls)

     Called by *egterg:
     cdiaghg      :      5.30s CPU      5.61s WALL (    7705 calls)
     h_psi        :     26.84s CPU     29.12s WALL (    7957 calls)
     s_psi        :      1.18s CPU      1.28s WALL (    7957 calls)
     g_psi        :      0.19s CPU      0.20s WALL (    6421 calls)

     Called by h_psi:
     h_psi:calbec :      2.04s CPU      2.23s WALL (    7957 calls)
     vloc_psi     :     23.25s CPU     25.20s WALL (    7957 calls)
     add_vuspsi   :      1.32s CPU      1.44s WALL (    7957 calls)

     General routines
     calbec       :      3.53s CPU      3.89s WALL (   12445 calls)
     fft          :      1.29s CPU      1.36s WALL (    1754 calls)
     ffts         :      0.11s CPU      0.12s WALL (     526 calls)
     fftw         :     21.27s CPU     23.10s WALL (  237054 calls)
     interpolate  :      0.25s CPU      0.26s WALL (     271 calls)

     Parallel routines

     PWSCF        :   2m17.56s CPU   2m36.95s WALL


   This run was terminated on:  13: 6:11  21Oct2025            

=------------------------------------------------------------------------------=
   JOB DONE.
=------------------------------------------------------------------------------=
