
     Program PWSCF v.7.4.1 starts on 21Oct2025 at  0:36:32 

     This program is part of the open-source Quantum ESPRESSO suite
     for quantum simulation of materials; please cite
         "P. Giannozzi et al., J. Phys.:Condens. Matter 21 395502 (2009);
         "P. Giannozzi et al., J. Phys.:Condens. Matter 29 465901 (2017);
         "P. Giannozzi et al., J. Chem. Phys. 152 154105 (2020);
          URL http://www.quantum-espresso.org", 
     in publications or presentations arising from this work. More details at
     http://www.quantum-espresso.org/quote

     Parallel version (MPI), running on     2 processors

     MPI processes distributed on     1 nodes
     159 MiB available memory on the printing compute node when the environment starts

     Waiting for input...
     Reading input from standard input
Warning: card &CELL ignored
Warning: card / ignored

     Current dimensions of program PWSCF are:
     Max number of different atomic species (ntypx) = 10
     Max number of k-points (npk) =  40000
     Max angular momentum in pseudopotentials (lmaxx) =  4
     file Fe.pbe-nd-rrkjus.UPF: wavefunction(s)  4S renormalized
     Message from routine setup:
     using ibrav=0 with symmetry is DISCOURAGED, use correct ibrav instead

     R & G space division:  proc/nbgrp/npool/nimage =       2
     Subspace diagonalization in iterative solution of the eigenvalue problem:
     a serial algorithm will be used


     Parallelization info
     --------------------
     sticks:   dense  smooth     PW     G-vecs:    dense   smooth      PW
     Min         285     114     49                 4389     1120     336
     Max         286     115     50                 4392     1123     339
     Sum         571     229     99                 8781     2243     675

     Using Slab Decomposition



     bravais-lattice index     =            0
     lattice parameter (alat)  =       5.0733  a.u.
     unit-cell volume          =     100.5198 (a.u.)^3
     number of atoms/cell      =            1
     number of atomic types    =            1
     number of electrons       =         8.00
     number of Kohn-Sham states=            8
     kinetic-energy cutoff     =      30.0000  Ry
     charge density cutoff     =     300.0000  Ry
     scf convergence threshold =      1.0E-07
     mixing beta               =       0.5000
     number of iterations used =            8  plain     mixing
     Exchange-correlation=  SLA  PW   PBE  PBE
                           (   1   4   3   4   0   0   0)

     celldm(1)=   5.073308  celldm(2)=   0.000000  celldm(3)=   0.000000
     celldm(4)=   0.000000  celldm(5)=   0.000000  celldm(6)=   0.000000

     crystal axes: (cart. coord. in units of alat)
               a(1) = (  -0.577350   0.577350   0.577350 )  
               a(2) = (   0.577350  -0.577350   0.577350 )  
               a(3) = (   0.577350   0.577350  -0.577350 )  

     reciprocal axes: (cart. coord. in units 2 pi/alat)
               b(1) = (  0.000000  0.866025  0.866025 )  
               b(2) = (  0.866025  0.000000  0.866025 )  
               b(3) = (  0.866025  0.866025  0.000000 )  


     PseudoPot. # 1 for Fe read from file:
     /home/bond/Software/QE/qe-7.4.1/pseudo/Fe.pbe-nd-rrkjus.UPF
     MD5 check sum: 398036227a04b607635f6f5e8dfd8242
     Pseudo is Ultrasoft + core correction, Zval =  8.0
     Generated by new atomic code, or converted to UPF format
     Using radial grid of  957 points,  6 beta functions with: 
                l(1) =   0
                l(2) =   0
                l(3) =   1
                l(4) =   1
                l(5) =   2
                l(6) =   2
     Q(r) pseudized with 0 coefficients 


     atomic species   valence    mass     pseudopotential
     Fe                8.00    55.84500     Fe( 1.00)

     Starting magnetic structure 
     atomic species   magnetization
     Fe              0.700

     48 Sym. Ops., with inversion, found



   Cartesian axes

     site n.     atom                  positions (alat units)
         1        Fe     tau(   1) = (   0.0000000   0.0000000   0.0000000  )

     number of k points=   104  Methfessel-Paxton smearing, width (Ry)=  0.0200

     Number of k-points >= 100: set verbosity='high' to print them.

     Dense  grid:     8781 G-vectors     FFT dimensions: (  27,  27,  27)

     Smooth grid:     2243 G-vectors     FFT dimensions: (  18,  18,  18)

     Estimated max dynamical RAM per process >      22.78 MB

     Estimated total dynamical RAM >      45.56 MB

     Check: negative core charge=   -0.000013
     Generating pointlists ...
     new r_m :   0.4125 (alat units)  2.0927 (a.u.) for type    1

     Initial potential from superposition of free atoms

     starting charge       7.9994, renormalised to       8.0000
     Starting wfcs are    6 randomized atomic wfcs +    2 random wfcs

     total cpu time spent up to now is        1.1 secs

     Self-consistent Calculation

     iteration #  1     ecut=    30.00 Ry     beta= 0.50
     Davidson diagonalization with overlap
     ethr =  1.00E-02,  avg # of iterations =  4.5

     total cpu time spent up to now is        2.7 secs

     total energy              =     -55.62577450 Ry
     estimated scf accuracy    <       0.37240130 Ry

     total magnetization       =     3.45 Bohr mag/cell
     absolute magnetization    =     3.45 Bohr mag/cell

     iteration #  2     ecut=    30.00 Ry     beta= 0.50
     Davidson diagonalization with overlap
     ethr =  4.66E-03,  avg # of iterations =  1.9

     total cpu time spent up to now is        3.9 secs

     total energy              =     -55.74333348 Ry
     estimated scf accuracy    <       0.11735253 Ry

     total magnetization       =     3.00 Bohr mag/cell
     absolute magnetization    =     3.02 Bohr mag/cell

     iteration #  3     ecut=    30.00 Ry     beta= 0.50
     Davidson diagonalization with overlap
     ethr =  1.47E-03,  avg # of iterations =  1.1

     total cpu time spent up to now is        4.8 secs

     total energy              =     -55.77682339 Ry
     estimated scf accuracy    <       0.00542338 Ry

     total magnetization       =     3.05 Bohr mag/cell
     absolute magnetization    =     3.10 Bohr mag/cell

     iteration #  4     ecut=    30.00 Ry     beta= 0.50
     Davidson diagonalization with overlap
     ethr =  6.78E-05,  avg # of iterations =  3.2

     total cpu time spent up to now is        5.8 secs

     total energy              =     -55.78229461 Ry
     estimated scf accuracy    <       0.00027640 Ry

     total magnetization       =     2.83 Bohr mag/cell
     absolute magnetization    =     3.02 Bohr mag/cell

     iteration #  5     ecut=    30.00 Ry     beta= 0.50
     Davidson diagonalization with overlap
     c_bands:  1 eigenvalues not converged
     c_bands:  1 eigenvalues not converged
     c_bands:  1 eigenvalues not converged
     c_bands:  1 eigenvalues not converged
     c_bands:  1 eigenvalues not converged
     c_bands:  1 eigenvalues not converged
     ethr =  3.46E-06,  avg # of iterations =  6.5

     total cpu time spent up to now is        7.8 secs

     total energy              =     -55.78259448 Ry
     estimated scf accuracy    <       0.00003039 Ry

     total magnetization       =     2.79 Bohr mag/cell
     absolute magnetization    =     3.02 Bohr mag/cell

     iteration #  6     ecut=    30.00 Ry     beta= 0.50
     Davidson diagonalization with overlap
     ethr =  3.80E-07,  avg # of iterations =  3.4

     total cpu time spent up to now is        9.8 secs

     total energy              =     -55.78262364 Ry
     estimated scf accuracy    <       0.00000836 Ry

     total magnetization       =     2.79 Bohr mag/cell
     absolute magnetization    =     3.03 Bohr mag/cell

     iteration #  7     ecut=    30.00 Ry     beta= 0.50
     Davidson diagonalization with overlap
     ethr =  1.04E-07,  avg # of iterations =  2.1

     total cpu time spent up to now is       10.6 secs

     total energy              =     -55.78262640 Ry
     estimated scf accuracy    <       0.00000105 Ry

     total magnetization       =     2.79 Bohr mag/cell
     absolute magnetization    =     3.04 Bohr mag/cell

     iteration #  8     ecut=    30.00 Ry     beta= 0.50
     Davidson diagonalization with overlap
     ethr =  1.32E-08,  avg # of iterations =  4.1

     Magnetic moment per site  (integrated on atomic sphere of radius R)
     atom   1 (R=0.413)  charge=  6.6247  magn=  2.9071

     total cpu time spent up to now is       11.8 secs

     End of self-consistent calculation

     Number of k-points >= 100: set verbosity='high' to print the bands.

     the Fermi energy is     9.6790 ev

!    total energy              =     -55.78262747 Ry
     estimated scf accuracy    <       0.00000004 Ry
     smearing contrib. (-TS)   =      -0.00006273 Ry
     internal energy E=F+TS    =     -55.78256474 Ry

     The total energy is F=E-TS. E is the sum of the following terms:
     one-electron contribution =       2.33335065 Ry
     hartree contribution      =       8.00406461 Ry
     xc contribution           =     -26.36154064 Ry
     ewald contribution        =     -39.75843936 Ry

     total magnetization       =     2.79 Bohr mag/cell
     absolute magnetization    =     3.04 Bohr mag/cell

     convergence has been achieved in   8 iterations

     Forces acting on atoms (cartesian axes, Ry/au):

     atom    1 type  1   force =     0.00000000    0.00000000    0.00000000

     Total force =     0.000000     Total SCF correction =     0.000000


     Computing stress (Cartesian axis) and pressure

          total   stress  (Ry/bohr**3)                   (kbar)     P=     -225.55
  -0.00153326   0.00000000  -0.00000000         -225.55        0.00       -0.00
   0.00000000  -0.00153326  -0.00000000            0.00     -225.55       -0.00
  -0.00000000  -0.00000000  -0.00153326           -0.00       -0.00     -225.55

     Message from routine punch:
     Nothing written, as per user request (disk_io='none')

     init_run     :      0.74s CPU      0.84s WALL (       1 calls)
     electrons    :      9.48s CPU     10.66s WALL (       1 calls)
     forces       :      0.07s CPU      0.08s WALL (       1 calls)
     stress       :      0.42s CPU      0.43s WALL (       1 calls)

     Called by init_run:
     wfcinit      :      0.32s CPU      0.35s WALL (       1 calls)
     potinit      :      0.12s CPU      0.13s WALL (       1 calls)
     hinit0       :      0.26s CPU      0.29s WALL (       1 calls)

     Called by electrons:
     c_bands      :      7.73s CPU      8.77s WALL (       8 calls)
     sum_band     :      1.41s CPU      1.55s WALL (       8 calls)
     v_of_rho     :      0.15s CPU      0.15s WALL (       9 calls)
     newd         :      0.18s CPU      0.20s WALL (       9 calls)
     mix_rho      :      0.01s CPU      0.02s WALL (       8 calls)

     Called by c_bands:
     init_us_2    :      0.23s CPU      0.24s WALL (    3952 calls)
     cegterg      :      7.28s CPU      8.28s WALL (    1664 calls)

     Called by *egterg:
     cdiaghg      :      0.78s CPU      0.87s WALL (    7248 calls)
     h_psi        :      5.82s CPU      6.55s WALL (    7456 calls)
     s_psi        :      0.08s CPU      0.09s WALL (    7456 calls)
     g_psi        :      0.03s CPU      0.03s WALL (    5584 calls)

     Called by h_psi:
     h_psi:calbec :      0.27s CPU      0.32s WALL (    7456 calls)
     vloc_psi     :      5.36s CPU      6.02s WALL (    7456 calls)
     add_vuspsi   :      0.09s CPU      0.11s WALL (    7456 calls)

     General routines
     calbec       :      0.38s CPU      0.42s WALL (   12656 calls)
     fft          :      0.14s CPU      0.16s WALL (     263 calls)
     ffts         :      0.10s CPU      0.11s WALL (      34 calls)
     fftw         :      5.45s CPU      6.08s WALL (   87872 calls)
     interpolate  :      0.11s CPU      0.11s WALL (      18 calls)

     Parallel routines

     PWSCF        :     10.96s CPU     12.31s WALL


   This run was terminated on:   0:36:45  21Oct2025            

=------------------------------------------------------------------------------=
   JOB DONE.
=------------------------------------------------------------------------------=
