
     Program PWSCF v.7.4.1 starts on  8Oct2025 at  0:23:43 

     This program is part of the open-source Quantum ESPRESSO suite
     for quantum simulation of materials; please cite
         "P. Giannozzi et al., J. Phys.:Condens. Matter 21 395502 (2009);
         "P. Giannozzi et al., J. Phys.:Condens. Matter 29 465901 (2017);
         "P. Giannozzi et al., J. Chem. Phys. 152 154105 (2020);
          URL http://www.quantum-espresso.org", 
     in publications or presentations arising from this work. More details at
     http://www.quantum-espresso.org/quote

     Parallel version (MPI), running on     1 processors

     MPI processes distributed on     1 nodes
     180 MiB available memory on the printing compute node when the environment starts

     Waiting for input...
     Reading input from standard input
Warning: card &CELL ignored
Warning: card / ignored

     Current dimensions of program PWSCF are:
     Max number of different atomic species (ntypx) = 10
     Max number of k-points (npk) =  40000
     Max angular momentum in pseudopotentials (lmaxx) =  4
     Message from routine setup:
     using ibrav=0 with symmetry is DISCOURAGED, use correct ibrav instead

     Subspace diagonalization in iterative solution of the eigenvalue problem:
     a serial algorithm will be used


     G-vector sticks info
     --------------------
     sticks:   dense  smooth     PW     G-vecs:    dense   smooth      PW
     Sum         703     703    211                12387    12387    2085

     Using Slab Decomposition



     bravais-lattice index     =            0
     lattice parameter (alat)  =       7.5604  a.u.
     unit-cell volume          =     305.5804 (a.u.)^3
     number of atoms/cell      =            2
     number of atomic types    =            1
     number of electrons       =        28.00
     number of Kohn-Sham states=           14
     kinetic-energy cutoff     =      45.0000  Ry
     charge density cutoff     =     180.0000  Ry
     scf convergence threshold =      1.0E-07
     mixing beta               =       0.5000
     number of iterations used =            8  plain     mixing
     Exchange-correlation=  SLA  PZ   NOGX NOGC
                           (   1   1   0   0   0   0   0)

     celldm(1)=   7.560435  celldm(2)=   0.000000  celldm(3)=   0.000000
     celldm(4)=   0.000000  celldm(5)=   0.000000  celldm(6)=   0.000000

     crystal axes: (cart. coord. in units of alat)
               a(1) = (   0.000000   0.707107   0.707107 )  
               a(2) = (   0.707107   0.000000   0.707107 )  
               a(3) = (   0.707107   0.707107   0.000000 )  

     reciprocal axes: (cart. coord. in units 2 pi/alat)
               b(1) = ( -0.707107  0.707107  0.707107 )  
               b(2) = (  0.707107 -0.707107  0.707107 )  
               b(3) = (  0.707107  0.707107 -0.707107 )  


     PseudoPot. # 1 for Ge read from file:
     /home/bond/Software/QE/qe-7.4.1/pseudo/ge_lda_v1.4.uspp.F.UPF
     MD5 check sum: bf9d52b59cc8a669818bb2b52e0c2ba0
     Pseudo is Ultrasoft + core correction, Zval = 14.0
     Generated by new atomic code, or converted to UPF format
     Using radial grid of  873 points,  6 beta functions with: 
                l(1) =   0
                l(2) =   0
                l(3) =   1
                l(4) =   1
                l(5) =   2
                l(6) =   2
     Q(r) pseudized with  8 coefficients,  rinner =    1.400   1.400   1.400
                                                       1.400   1.400

     atomic species   valence    mass     pseudopotential
     Ge               14.00    72.63000     Ge( 1.00)

      4 Sym. Ops. (no inversion) found



   Cartesian axes

     site n.     atom                  positions (alat units)
         1        Ge     tau(   1) = (   0.0000000   0.0000000   0.0707107  )
         2        Ge     tau(   2) = (   0.3535534   0.3535534   0.3535534  )

     number of k points=    18
                       cart. coord. in units 2pi/alat
        k(    1) = (   0.0000000   0.0000000   0.0000000), wk =   0.0312500
        k(    2) = (   0.1767767   0.1767767  -0.1767767), wk =   0.1250000
        k(    3) = (  -0.3535534  -0.3535534   0.3535534), wk =   0.0625000
        k(    4) = (   0.3535534   0.0000000   0.0000000), wk =   0.1250000
        k(    5) = (  -0.1767767  -0.5303301   0.5303301), wk =   0.2500000
        k(    6) = (   0.0000000  -0.3535534   0.3535534), wk =   0.2500000
        k(    7) = (  -0.7071068   0.0000000   0.0000000), wk =   0.0625000
        k(    8) = (  -0.7071068   0.3535534   0.0000000), wk =   0.1250000
        k(    9) = (   0.1767767  -0.1767767  -0.1767767), wk =   0.1250000
        k(   10) = (  -0.3535534   0.3535534   0.3535534), wk =   0.0625000
        k(   11) = (   0.0000000   0.0000000   0.3535534), wk =   0.0625000
        k(   12) = (  -0.5303301   0.1767767   0.5303301), wk =   0.2500000
        k(   13) = (   0.5303301   0.5303301  -0.1767767), wk =   0.1250000
        k(   14) = (  -0.5303301   0.5303301   0.1767767), wk =   0.1250000
        k(   15) = (   0.3535534   0.3535534   0.0000000), wk =   0.0625000
        k(   16) = (  -0.3535534   0.3535534   0.0000000), wk =   0.0625000
        k(   17) = (   0.0000000   0.0000000  -0.7071068), wk =   0.0312500
        k(   18) = (   0.7071068   0.0000000   0.3535534), wk =   0.0625000

     Dense  grid:    12387 G-vectors     FFT dimensions: (  36,  36,  36)

     Estimated max dynamical RAM per process >      54.60 MB

     Check: negative core charge=   -0.000002

     Initial potential from superposition of free atoms

     starting charge      27.9986, renormalised to      28.0000
     Starting wfcs are   18 randomized atomic wfcs

     total cpu time spent up to now is        1.3 secs

     Self-consistent Calculation

     iteration #  1     ecut=    45.00 Ry     beta= 0.50
     Davidson diagonalization with overlap
     ethr =  1.00E-02,  avg # of iterations =  1.8

     Threshold (ethr) on eigenvalues was too large:
     Diagonalizing with lowered threshold

     Davidson diagonalization with overlap
     ethr =  1.36E-04,  avg # of iterations =  1.9

     total cpu time spent up to now is        2.8 secs

     total energy              =    -426.12102391 Ry
     estimated scf accuracy    <       0.04003104 Ry

     iteration #  2     ecut=    45.00 Ry     beta= 0.50
     Davidson diagonalization with overlap
     ethr =  1.43E-04,  avg # of iterations =  1.1

     total cpu time spent up to now is        3.7 secs

     total energy              =    -426.11953838 Ry
     estimated scf accuracy    <       0.00691426 Ry

     iteration #  3     ecut=    45.00 Ry     beta= 0.50
     Davidson diagonalization with overlap
     ethr =  2.47E-05,  avg # of iterations =  2.1

     total cpu time spent up to now is        4.9 secs

     total energy              =    -426.12008671 Ry
     estimated scf accuracy    <       0.00008822 Ry

     iteration #  4     ecut=    45.00 Ry     beta= 0.50
     Davidson diagonalization with overlap
     ethr =  3.15E-07,  avg # of iterations =  3.5

     total cpu time spent up to now is        6.4 secs

     total energy              =    -426.12011587 Ry
     estimated scf accuracy    <       0.00000338 Ry

     iteration #  5     ecut=    45.00 Ry     beta= 0.50
     Davidson diagonalization with overlap
     ethr =  1.21E-08,  avg # of iterations =  3.8

     total cpu time spent up to now is        7.9 secs

     total energy              =    -426.12011683 Ry
     estimated scf accuracy    <       0.00000020 Ry

     iteration #  6     ecut=    45.00 Ry     beta= 0.50
     Davidson diagonalization with overlap
     ethr =  7.16E-10,  avg # of iterations =  4.0

     total cpu time spent up to now is        9.2 secs

     End of self-consistent calculation

          k = 0.0000 0.0000 0.0000 (  1471 PWs)   bands (ev):

   -16.8269 -16.8211 -16.7594 -16.7231 -16.6979 -16.5490 -16.5175 -16.5153
   -16.4903 -16.4866  -4.7155   6.8896   7.9974   8.4116

          k = 0.1768 0.1768-0.1768 (  1546 PWs)   bands (ev):

   -16.8757 -16.8577 -16.7605 -16.6781 -16.6746 -16.5692 -16.5642 -16.4814
   -16.4700 -16.4427  -3.9324   2.8204   6.9663   8.0230

          k =-0.3536-0.3536 0.3536 (  1538 PWs)   bands (ev):

   -16.9037 -16.8897 -16.7465 -16.6871 -16.6594 -16.5676 -16.5653 -16.4861
   -16.4420 -16.4128  -2.2954  -0.2978   6.3497   7.4857

          k = 0.3536 0.0000 0.0000 (  1587 PWs)   bands (ev):

   -16.8745 -16.8615 -16.7567 -16.6679 -16.6433 -16.6133 -16.5635 -16.4899
   -16.4555 -16.4472  -3.7207   3.0868   6.2339   6.4031

          k =-0.1768-0.5303 0.5303 (  1564 PWs)   bands (ev):

   -16.9103 -16.8864 -16.7380 -16.6725 -16.6432 -16.5835 -16.5770 -16.5096
   -16.4331 -16.4055  -2.0114   0.0322   4.8146   5.9029

          k = 0.0000-0.3536 0.3536 (  1554 PWs)   bands (ev):

   -16.8881 -16.8471 -16.7291 -16.6907 -16.6529 -16.5876 -16.5581 -16.5239
   -16.4615 -16.4286  -2.8903   1.5580   4.2063   6.8681

          k =-0.7071 0.0000 0.0000 (  1588 PWs)   bands (ev):

   -16.8988 -16.8987 -16.7067 -16.7067 -16.6099 -16.6098 -16.5469 -16.5469
   -16.4167 -16.4167  -0.9074  -0.9074   5.2466   5.2467

          k =-0.7071 0.3536 0.0000 (  1564 PWs)   bands (ev):

   -16.8989 -16.8302 -16.7150 -16.7009 -16.6242 -16.6204 -16.5457 -16.5429
   -16.4677 -16.4167  -1.4316   0.0021   3.8759   4.6282

          k = 0.1768-0.1768-0.1768 (  1546 PWs)   bands (ev):

   -16.8296 -16.8216 -16.7463 -16.7138 -16.6824 -16.5643 -16.5392 -16.5156
   -16.4862 -16.4825  -4.0448   3.9155   6.3362   7.9793

          k =-0.3536 0.3536 0.3536 (  1538 PWs)   bands (ev):

   -16.8344 -16.8136 -16.7377 -16.7098 -16.6575 -16.5889 -16.5512 -16.5108
   -16.4896 -16.4811  -2.9748   1.3164   5.9253   7.5568

          k = 0.0000 0.0000 0.3536 (  1587 PWs)   bands (ev):

   -16.8337 -16.8157 -16.7350 -16.7172 -16.6974 -16.5720 -16.5207 -16.5087
   -16.4930 -16.4849  -3.7453   3.5762   5.4973   6.5169

          k =-0.5303 0.1768 0.5303 (  1564 PWs)   bands (ev):

   -16.8883 -16.8495 -16.7251 -16.6654 -16.6403 -16.6046 -16.5823 -16.5268
   -16.4557 -16.4284  -2.4882   1.2780   3.9613   6.0147

          k = 0.5303 0.5303-0.1768 (  1564 PWs)   bands (ev):

   -16.8986 -16.8248 -16.7391 -16.6976 -16.6486 -16.6007 -16.5483 -16.4966
   -16.4922 -16.4174  -2.1642   0.4641   4.0847   6.1777

          k =-0.5303 0.5303 0.1768 (  1564 PWs)   bands (ev):

   -16.8407 -16.8074 -16.7198 -16.7107 -16.6827 -16.5814 -16.5455 -16.5269
   -16.4785 -16.4777  -2.5387   1.3736   4.7697   5.1723

          k = 0.3536 0.3536 0.0000 (  1554 PWs)   bands (ev):

   -16.9194 -16.8717 -16.7616 -16.6592 -16.6433 -16.6042 -16.5682 -16.4760
   -16.4589 -16.3980  -2.5984   0.6345   4.4015   7.3077

          k =-0.3536 0.3536 0.0000 (  1554 PWs)   bands (ev):

   -16.8390 -16.8171 -16.7278 -16.7072 -16.6274 -16.6228 -16.5527 -16.5322
   -16.4753 -16.4735  -3.1068   2.5806   4.2910   5.8694

          k = 0.0000 0.0000-0.7071 (  1588 PWs)   bands (ev):

   -16.8449 -16.7891 -16.7326 -16.7043 -16.7003 -16.5843 -16.5368 -16.5082
   -16.4956 -16.4717  -1.7122   0.2663   4.6086   5.4075

          k = 0.7071 0.0000 0.3536 (  1564 PWs)   bands (ev):

   -16.9019 -16.9019 -16.6935 -16.6935 -16.6114 -16.6113 -16.5604 -16.5604
   -16.4117 -16.4117  -0.8193  -0.8193   4.3780   4.3781

     highest occupied level (ev):     8.4116

!    total energy              =    -426.12011691 Ry
     estimated scf accuracy    <       0.00000002 Ry

     The total energy is the sum of the following terms:
     one-electron contribution =    -280.50180847 Ry
     hartree contribution      =     165.68936330 Ry
     xc contribution           =    -114.55845364 Ry
     ewald contribution        =    -196.74921809 Ry

     convergence has been achieved in   6 iterations

     Forces acting on atoms (cartesian axes, Ry/au):

     atom    1 type  1   force =    -0.00000000    0.00000000   -0.11642357
     atom    2 type  1   force =     0.00000000   -0.00000000    0.11642357

     Total force =     0.164648     Total SCF correction =     0.000646


     Computing stress (Cartesian axis) and pressure

          total   stress  (Ry/bohr**3)                   (kbar)     P=       17.20
   0.00017400   0.00050534   0.00000000           25.60       74.34        0.00
   0.00050534   0.00017400   0.00000000           74.34       25.60        0.00
   0.00000000   0.00000000   0.00000279            0.00        0.00        0.41

     Message from routine punch:
     Nothing written, as per user request (disk_io='none')

     init_run     :      1.06s CPU      1.10s WALL (       1 calls)
     electrons    :      7.14s CPU      7.94s WALL (       1 calls)
     forces       :      0.15s CPU      0.22s WALL (       1 calls)
     stress       :      0.89s CPU      0.97s WALL (       1 calls)

     Called by init_run:
     wfcinit      :      0.52s CPU      0.53s WALL (       1 calls)
     potinit      :      0.02s CPU      0.02s WALL (       1 calls)
     hinit0       :      0.45s CPU      0.45s WALL (       1 calls)

     Called by electrons:
     c_bands      :      5.41s CPU      5.69s WALL (       7 calls)
     sum_band     :      1.36s CPU      1.61s WALL (       7 calls)
     v_of_rho     :      0.03s CPU      0.04s WALL (       7 calls)
     newd         :      0.37s CPU      0.64s WALL (       7 calls)
     mix_rho      :      0.01s CPU      0.01s WALL (       7 calls)

     Called by c_bands:
     init_us_2    :      0.21s CPU      0.23s WALL (     306 calls)
     cegterg      :      4.96s CPU      5.21s WALL (     126 calls)

     Called by *egterg:
     cdiaghg      :      0.13s CPU      0.14s WALL (     436 calls)
     h_psi        :      4.70s CPU      4.90s WALL (     472 calls)
     s_psi        :      0.11s CPU      0.12s WALL (     472 calls)
     g_psi        :      0.02s CPU      0.02s WALL (     328 calls)

     Called by h_psi:
     h_psi:calbec :      0.15s CPU      0.15s WALL (     472 calls)
     vloc_psi     :      4.40s CPU      4.60s WALL (     472 calls)
     add_vuspsi   :      0.12s CPU      0.13s WALL (     472 calls)

     General routines
     calbec       :      0.30s CPU      0.32s WALL (     904 calls)
     fft          :      0.24s CPU      0.25s WALL (      37 calls)
     ffts         :      0.01s CPU      0.01s WALL (       7 calls)
     fftw         :      4.39s CPU      4.57s WALL (   11380 calls)

     Parallel routines

     PWSCF        :      9.38s CPU     10.38s WALL


   This run was terminated on:   0:23:54   8Oct2025            

=------------------------------------------------------------------------------=
   JOB DONE.
=------------------------------------------------------------------------------=
