
     Program PWSCF v.7.4.1 starts on  7Oct2025 at 23:56:22 

     This program is part of the open-source Quantum ESPRESSO suite
     for quantum simulation of materials; please cite
         "P. Giannozzi et al., J. Phys.:Condens. Matter 21 395502 (2009);
         "P. Giannozzi et al., J. Phys.:Condens. Matter 29 465901 (2017);
         "P. Giannozzi et al., J. Chem. Phys. 152 154105 (2020);
          URL http://www.quantum-espresso.org", 
     in publications or presentations arising from this work. More details at
     http://www.quantum-espresso.org/quote

     Parallel version (MPI), running on     1 processors

     MPI processes distributed on     1 nodes
     223 MiB available memory on the printing compute node when the environment starts

     Waiting for input...
     Reading input from standard input
Warning: card &CELL ignored
Warning: card / ignored

     Current dimensions of program PWSCF are:
     Max number of different atomic species (ntypx) = 10
     Max number of k-points (npk) =  40000
     Max angular momentum in pseudopotentials (lmaxx) =  4
     Message from routine setup:
     using ibrav=0 with symmetry is DISCOURAGED, use correct ibrav instead

     Subspace diagonalization in iterative solution of the eigenvalue problem:
     a serial algorithm will be used


     G-vector sticks info
     --------------------
     sticks:   dense  smooth     PW     G-vecs:    dense   smooth      PW
     Sum         475     475    151                 6855     6855    1243

     Using Slab Decomposition



     bravais-lattice index     =            0
     lattice parameter (alat)  =       7.5604  a.u.
     unit-cell volume          =     305.5804 (a.u.)^3
     number of atoms/cell      =            2
     number of atomic types    =            1
     number of electrons       =        28.00
     number of Kohn-Sham states=           14
     kinetic-energy cutoff     =      30.0000  Ry
     charge density cutoff     =     120.0000  Ry
     scf convergence threshold =      1.0E-07
     mixing beta               =       0.5000
     number of iterations used =            8  plain     mixing
     Exchange-correlation=  SLA  PZ   NOGX NOGC
                           (   1   1   0   0   0   0   0)

     celldm(1)=   7.560435  celldm(2)=   0.000000  celldm(3)=   0.000000
     celldm(4)=   0.000000  celldm(5)=   0.000000  celldm(6)=   0.000000

     crystal axes: (cart. coord. in units of alat)
               a(1) = (   0.000000   0.707107   0.707107 )  
               a(2) = (   0.707107   0.000000   0.707107 )  
               a(3) = (   0.707107   0.707107   0.000000 )  

     reciprocal axes: (cart. coord. in units 2 pi/alat)
               b(1) = ( -0.707107  0.707107  0.707107 )  
               b(2) = (  0.707107 -0.707107  0.707107 )  
               b(3) = (  0.707107  0.707107 -0.707107 )  


     PseudoPot. # 1 for Ge read from file:
     /home/bond/Software/QE/qe-7.4.1/pseudo/ge_lda_v1.4.uspp.F.UPF
     MD5 check sum: bf9d52b59cc8a669818bb2b52e0c2ba0
     Pseudo is Ultrasoft + core correction, Zval = 14.0
     Generated by new atomic code, or converted to UPF format
     Using radial grid of  873 points,  6 beta functions with: 
                l(1) =   0
                l(2) =   0
                l(3) =   1
                l(4) =   1
                l(5) =   2
                l(6) =   2
     Q(r) pseudized with  8 coefficients,  rinner =    1.400   1.400   1.400
                                                       1.400   1.400

     atomic species   valence    mass     pseudopotential
     Ge               14.00    72.63000     Ge( 1.00)

     48 Sym. Ops., with inversion, found (24 have fractional translation)



   Cartesian axes

     site n.     atom                  positions (alat units)
         1        Ge     tau(   1) = (   0.0000000   0.0000000   0.0000000  )
         2        Ge     tau(   2) = (   0.3535534   0.3535534   0.3535534  )

     number of k points=    72
                       cart. coord. in units 2pi/alat
        k(    1) = (   0.0000000   0.0000000   0.0000000), wk =   0.0011574
        k(    2) = (   0.0589256   0.0589256  -0.0589256), wk =   0.0092593
        k(    3) = (   0.1178511   0.1178511  -0.1178511), wk =   0.0092593
        k(    4) = (   0.1767767   0.1767767  -0.1767767), wk =   0.0092593
        k(    5) = (   0.2357023   0.2357023  -0.2357023), wk =   0.0092593
        k(    6) = (   0.2946278   0.2946278  -0.2946278), wk =   0.0092593
        k(    7) = (  -0.3535534  -0.3535534   0.3535534), wk =   0.0046296
        k(    8) = (   0.1178511   0.0000000   0.0000000), wk =   0.0069444
        k(    9) = (   0.1767767   0.0589256  -0.0589256), wk =   0.0277778
        k(   10) = (   0.2357023   0.1178511  -0.1178511), wk =   0.0277778
        k(   11) = (   0.2946278   0.1767767  -0.1767767), wk =   0.0277778
        k(   12) = (   0.3535534   0.2357023  -0.2357023), wk =   0.0277778
        k(   13) = (  -0.2946278  -0.4124790   0.4124790), wk =   0.0277778
        k(   14) = (  -0.2357023  -0.3535534   0.3535534), wk =   0.0277778
        k(   15) = (  -0.1767767  -0.2946278   0.2946278), wk =   0.0277778
        k(   16) = (  -0.1178511  -0.2357023   0.2357023), wk =   0.0277778
        k(   17) = (  -0.0589256  -0.1767767   0.1767767), wk =   0.0277778
        k(   18) = (  -0.0000000  -0.1178511   0.1178511), wk =   0.0138889
        k(   19) = (   0.2357023   0.0000000   0.0000000), wk =   0.0069444
        k(   20) = (   0.2946278   0.0589256  -0.0589256), wk =   0.0277778
        k(   21) = (   0.3535534   0.1178511  -0.1178511), wk =   0.0277778
        k(   22) = (   0.4124790   0.1767767  -0.1767767), wk =   0.0277778
        k(   23) = (  -0.2357023  -0.4714045   0.4714045), wk =   0.0277778
        k(   24) = (  -0.1767767  -0.4124790   0.4124790), wk =   0.0277778
        k(   25) = (  -0.1178511  -0.3535534   0.3535534), wk =   0.0277778
        k(   26) = (  -0.0589256  -0.2946278   0.2946278), wk =   0.0277778
        k(   27) = (   0.0000000  -0.2357023   0.2357023), wk =   0.0138889
        k(   28) = (   0.3535534   0.0000000   0.0000000), wk =   0.0069444
        k(   29) = (   0.4124790   0.0589256  -0.0589256), wk =   0.0277778
        k(   30) = (   0.4714045   0.1178511  -0.1178511), wk =   0.0277778
        k(   31) = (  -0.1767767  -0.5303301   0.5303301), wk =   0.0277778
        k(   32) = (  -0.1178511  -0.4714045   0.4714045), wk =   0.0277778
        k(   33) = (  -0.0589256  -0.4124790   0.4124790), wk =   0.0277778
        k(   34) = (   0.0000000  -0.3535534   0.3535534), wk =   0.0138889
        k(   35) = (   0.4714045   0.0000000   0.0000000), wk =   0.0069444
        k(   36) = (   0.5303301   0.0589256  -0.0589256), wk =   0.0277778
        k(   37) = (  -0.1178511  -0.5892557   0.5892557), wk =   0.0277778
        k(   38) = (  -0.0589256  -0.5303301   0.5303301), wk =   0.0277778
        k(   39) = (  -0.0000000  -0.4714045   0.4714045), wk =   0.0138889
        k(   40) = (   0.5892557   0.0000000   0.0000000), wk =   0.0069444
        k(   41) = (  -0.0589256  -0.6481812   0.6481812), wk =   0.0277778
        k(   42) = (   0.0000000  -0.5892557   0.5892557), wk =   0.0138889
        k(   43) = (  -0.7071068   0.0000000   0.0000000), wk =   0.0034722
        k(   44) = (   0.2357023   0.1178511  -0.0000000), wk =   0.0277778
        k(   45) = (   0.2946278   0.1767767  -0.0589256), wk =   0.0555556
        k(   46) = (   0.3535534   0.2357023  -0.1178511), wk =   0.0555556
        k(   47) = (  -0.2946278  -0.4124790   0.5303301), wk =   0.0555556
        k(   48) = (  -0.2357023  -0.3535534   0.4714045), wk =   0.0277778
        k(   49) = (   0.3535534   0.1178511   0.0000000), wk =   0.0277778
        k(   50) = (   0.4124790   0.1767767  -0.0589256), wk =   0.0555556
        k(   51) = (  -0.2357023  -0.4714045   0.5892557), wk =   0.0555556
        k(   52) = (  -0.1767767  -0.4124790   0.5303301), wk =   0.0555556
        k(   53) = (  -0.1178511  -0.3535534   0.4714045), wk =   0.0555556
        k(   54) = (  -0.0589256  -0.2946278   0.4124790), wk =   0.0555556
        k(   55) = (   0.0000000  -0.2357023   0.3535534), wk =   0.0277778
        k(   56) = (   0.4714045   0.1178511   0.0000000), wk =   0.0277778
        k(   57) = (  -0.1767767  -0.5303301   0.6481812), wk =   0.0555556
        k(   58) = (  -0.1178511  -0.4714045   0.5892557), wk =   0.0555556
        k(   59) = (  -0.0589256  -0.4124790   0.5303301), wk =   0.0555556
        k(   60) = (  -0.0000000  -0.3535534   0.4714045), wk =   0.0277778
        k(   61) = (  -0.1178511  -0.5892557   0.7071068), wk =   0.0277778
        k(   62) = (  -0.0589256  -0.5303301   0.6481812), wk =   0.0555556
        k(   63) = (  -0.0000000  -0.4714045   0.5892557), wk =   0.0277778
        k(   64) = (  -0.7071068   0.1178511   0.0000000), wk =   0.0138889
        k(   65) = (  -0.2357023  -0.4714045   0.7071068), wk =   0.0277778
        k(   66) = (  -0.1767767  -0.4124790   0.6481812), wk =   0.0555556
        k(   67) = (  -0.1178511  -0.3535534   0.5892557), wk =   0.0277778
        k(   68) = (  -0.1178511  -0.4714045   0.7071068), wk =   0.0277778
        k(   69) = (  -0.0589256  -0.4124790   0.6481812), wk =   0.0555556
        k(   70) = (   0.0000000  -0.3535534   0.5892557), wk =   0.0277778
        k(   71) = (  -0.7071068   0.2357023   0.0000000), wk =   0.0138889
        k(   72) = (  -0.7071068   0.3535534   0.0000000), wk =   0.0069444

     Dense  grid:     6855 G-vectors     FFT dimensions: (  32,  32,  32)

     Estimated max dynamical RAM per process >      40.70 MB

     Check: negative core charge=   -0.000126

     Initial potential from superposition of free atoms

     starting charge      27.9986, renormalised to      28.0000
     Starting wfcs are   18 randomized atomic wfcs

     total cpu time spent up to now is        1.5 secs

     Self-consistent Calculation

     iteration #  1     ecut=    30.00 Ry     beta= 0.50
     Davidson diagonalization with overlap
     ethr =  1.00E-02,  avg # of iterations =  1.7

     Threshold (ethr) on eigenvalues was too large:
     Diagonalizing with lowered threshold

     Davidson diagonalization with overlap
     ethr =  1.20E-04,  avg # of iterations =  2.0

     total cpu time spent up to now is        4.6 secs

     total energy              =    -426.13970779 Ry
     estimated scf accuracy    <       0.03562976 Ry

     iteration #  2     ecut=    30.00 Ry     beta= 0.50
     Davidson diagonalization with overlap
     ethr =  1.27E-04,  avg # of iterations =  1.0

     total cpu time spent up to now is        6.7 secs

     total energy              =    -426.13856560 Ry
     estimated scf accuracy    <       0.00606142 Ry

     iteration #  3     ecut=    30.00 Ry     beta= 0.50
     Davidson diagonalization with overlap
     ethr =  2.16E-05,  avg # of iterations =  2.1

     total cpu time spent up to now is        8.4 secs

     total energy              =    -426.13905378 Ry
     estimated scf accuracy    <       0.00006720 Ry

     iteration #  4     ecut=    30.00 Ry     beta= 0.50
     Davidson diagonalization with overlap
     ethr =  2.40E-07,  avg # of iterations =  3.9

     total cpu time spent up to now is       10.8 secs

     total energy              =    -426.13907671 Ry
     estimated scf accuracy    <       0.00000641 Ry

     iteration #  5     ecut=    30.00 Ry     beta= 0.50
     Davidson diagonalization with overlap
     ethr =  2.29E-08,  avg # of iterations =  2.4

     total cpu time spent up to now is       13.0 secs

     total energy              =    -426.13907782 Ry
     estimated scf accuracy    <       0.00000011 Ry

     iteration #  6     ecut=    30.00 Ry     beta= 0.50
     Davidson diagonalization with overlap
     ethr =  3.83E-10,  avg # of iterations =  4.7

     total cpu time spent up to now is       15.9 secs

     End of self-consistent calculation

          k = 0.0000 0.0000 0.0000 (   869 PWs)   bands (ev):

   -16.8304 -16.8304 -16.8304 -16.8049 -16.8049 -16.6036 -16.6036 -16.6036
   -16.5805 -16.5805  -4.6688   7.9527   8.1470   8.1470

          k = 0.0589 0.0589-0.0589 (   875 PWs)   bands (ev):

   -16.8385 -16.8385 -16.8364 -16.7982 -16.7982 -16.6074 -16.6074 -16.6045
   -16.5771 -16.5771  -4.5841   6.5232   7.9800   7.9800

          k = 0.1179 0.1179-0.1179 (   869 PWs)   bands (ev):

   -16.8497 -16.8497 -16.8293 -16.7841 -16.7841 -16.6126 -16.6126 -16.6011
   -16.5699 -16.5699  -4.3330   4.9089   7.6255   7.6255

          k = 0.1768 0.1768-0.1768 (   854 PWs)   bands (ev):

   -16.8521 -16.8521 -16.8244 -16.7691 -16.7691 -16.6166 -16.6166 -16.6064
   -16.5605 -16.5605  -3.9279   3.3705   7.2658   7.2658

          k = 0.2357 0.2357-0.2357 (   854 PWs)   bands (ev):

   -16.8552 -16.8552 -16.8206 -16.7629 -16.7629 -16.6223 -16.6223 -16.6123
   -16.5566 -16.5566  -3.4026   2.0064   6.9822   6.9822

          k = 0.2946 0.2946-0.2946 (   847 PWs)   bands (ev):

   -16.8530 -16.8530 -16.8188 -16.7585 -16.7585 -16.6244 -16.6244 -16.6117
   -16.5524 -16.5524  -2.8590   0.9498   6.8049   6.8049

          k =-0.3536-0.3536 0.3536 (   862 PWs)   bands (ev):

   -16.8549 -16.8549 -16.8223 -16.7627 -16.7627 -16.6277 -16.6277 -16.6128
   -16.5575 -16.5575  -2.5850   0.5033   6.7449   6.7449

          k = 0.1179 0.0000 0.0000 (   881 PWs)   bands (ev):

   -16.8445 -16.8419 -16.8419 -16.8007 -16.7921 -16.6199 -16.5991 -16.5991
   -16.5847 -16.5724  -4.5556   6.4533   7.6782   7.6782

          k = 0.1768 0.0589-0.0589 (   860 PWs)   bands (ev):

   -16.8474 -16.8443 -16.8347 -16.7878 -16.7709 -16.6284 -16.5982 -16.5897
   -16.5769 -16.5648  -4.3593   5.2472   7.2793   7.3403

          k = 0.2357 0.1179-0.1179 (   861 PWs)   bands (ev):

   -16.8543 -16.8479 -16.8275 -16.7794 -16.7627 -16.6395 -16.6086 -16.5963
   -16.5691 -16.5605  -4.0036   3.7928   6.9218   6.9261

          k = 0.2946 0.1768-0.1768 (   852 PWs)   bands (ev):

   -16.8598 -16.8502 -16.8201 -16.7678 -16.7535 -16.6420 -16.6130 -16.6033
   -16.5609 -16.5523  -3.5122   2.4116   6.5145   6.6789

          k = 0.3536 0.2357-0.2357 (   847 PWs)   bands (ev):

   -16.8599 -16.8522 -16.8147 -16.7575 -16.7511 -16.6399 -16.6200 -16.6119
   -16.5541 -16.5462  -2.9544   1.2544   6.1935   6.5603

          k =-0.2946-0.4125 0.4125 (   849 PWs)   bands (ev):

   -16.8620 -16.8548 -16.8104 -16.7536 -16.7528 -16.6349 -16.6299 -16.6174
   -16.5488 -16.5450  -2.5427   0.5657   5.9878   6.5752

          k =-0.2357-0.3536 0.3536 (   844 PWs)   bands (ev):

   -16.8572 -16.8567 -16.8095 -16.7559 -16.7506 -16.6332 -16.6236 -16.6167
   -16.5482 -16.5463  -2.6410   0.7206   5.9126   6.7188

          k =-0.1768-0.2946 0.2946 (   850 PWs)   bands (ev):

   -16.8569 -16.8567 -16.8112 -16.7645 -16.7513 -16.6345 -16.6242 -16.6110
   -16.5530 -16.5511  -3.1410   1.6080   5.9790   6.9769

          k =-0.1179-0.2357 0.2357 (   844 PWs)   bands (ev):

   -16.8515 -16.8483 -16.8173 -16.7696 -16.7544 -16.6275 -16.6207 -16.5989
   -16.5620 -16.5521  -3.6897   2.8553   6.1977   7.3226

          k =-0.0589-0.1768 0.1768 (   857 PWs)   bands (ev):

   -16.8521 -16.8446 -16.8263 -16.7802 -16.7672 -16.6254 -16.6160 -16.5906
   -16.5730 -16.5602  -4.1399   4.2604   6.5873   7.6999

          k =-0.0000-0.1179 0.1179 (   863 PWs)   bands (ev):

   -16.8424 -16.8367 -16.8353 -16.7926 -16.7806 -16.6174 -16.6096 -16.5879
   -16.5804 -16.5674  -4.4436   5.6155   7.2066   7.9835

          k = 0.2357 0.0000 0.0000 (   869 PWs)   bands (ev):

   -16.8470 -16.8455 -16.8455 -16.7881 -16.7634 -16.6490 -16.5945 -16.5835
   -16.5835 -16.5676  -4.2178   4.8841   6.8588   6.8588

          k = 0.2946 0.0589-0.0589 (   855 PWs)   bands (ev):

   -16.8543 -16.8471 -16.8346 -16.7741 -16.7476 -16.6614 -16.6033 -16.5803
   -16.5715 -16.5603  -3.9136   3.8701   6.3913   6.4952

          k = 0.3536 0.1179-0.1179 (   847 PWs)   bands (ev):

   -16.8608 -16.8465 -16.8237 -16.7636 -16.7356 -16.6679 -16.6122 -16.5908
   -16.5610 -16.5494  -3.4632   2.6654   5.8414   6.2479

          k = 0.4125 0.1768-0.1768 (   847 PWs)   bands (ev):

   -16.8684 -16.8509 -16.8126 -16.7530 -16.7318 -16.6681 -16.6233 -16.6044
   -16.5521 -16.5407  -2.9132   1.5294   5.3575   6.1411

          k =-0.2357-0.4714 0.4714 (   842 PWs)   bands (ev):

   -16.8684 -16.8562 -16.8012 -16.7436 -16.7342 -16.6576 -16.6328 -16.6160
   -16.5461 -16.5354  -2.4102   0.6957   5.0051   6.1815

          k =-0.1768-0.4125 0.4125 (   843 PWs)   bands (ev):

   -16.8685 -16.8584 -16.7955 -16.7460 -16.7374 -16.6434 -16.6419 -16.6237
   -16.5454 -16.5355  -2.3187   0.5619   4.8118   6.3634

          k =-0.1179-0.3536 0.3536 (   848 PWs)   bands (ev):

   -16.8661 -16.8601 -16.7958 -16.7571 -16.7361 -16.6483 -16.6316 -16.6261
   -16.5455 -16.5405  -2.7418   1.2296   4.8039   6.6686

          k =-0.0589-0.2946 0.2946 (   849 PWs)   bands (ev):

   -16.8611 -16.8590 -16.8038 -16.7647 -16.7409 -16.6463 -16.6297 -16.6095
   -16.5513 -16.5471  -3.3003   2.2750   5.0287   7.0585

          k = 0.0000-0.2357 0.2357 (   845 PWs)   bands (ev):

   -16.8556 -16.8476 -16.8167 -16.7687 -16.7501 -16.6382 -16.6231 -16.5909
   -16.5642 -16.5524  -3.7880   3.3667   5.5896   7.4539

          k = 0.3536 0.0000 0.0000 (   849 PWs)   bands (ev):

   -16.8477 -16.8477 -16.8442 -16.7621 -16.7323 -16.6817 -16.6090 -16.5670
   -16.5645 -16.5645  -3.6603   3.3557   6.1120   6.1120

          k = 0.4125 0.0589-0.0589 (   846 PWs)   bands (ev):

   -16.8583 -16.8508 -16.8308 -16.7514 -16.7153 -16.6949 -16.6222 -16.5791
   -16.5560 -16.5505  -3.2546   2.4857   5.6112   5.8435

          k = 0.4714 0.1179-0.1179 (   847 PWs)   bands (ev):

   -16.8692 -16.8557 -16.8137 -16.7403 -16.7084 -16.7005 -16.6310 -16.5978
   -16.5482 -16.5390  -2.7274   1.5350   4.9578   5.7188

          k =-0.1768-0.5303 0.5303 (   845 PWs)   bands (ev):

   -16.8764 -16.8567 -16.7996 -16.7284 -16.7136 -16.6927 -16.6419 -16.6114
   -16.5440 -16.5306  -2.1749   0.7074   4.4059   5.7479

          k =-0.1179-0.4714 0.4714 (   841 PWs)   bands (ev):

   -16.8765 -16.8587 -16.7877 -16.7207 -16.7205 -16.6778 -16.6529 -16.6235
   -16.5408 -16.5275  -1.9108   0.3621   4.0593   5.9272

          k =-0.0589-0.4125 0.4125 (   849 PWs)   bands (ev):

   -16.8770 -16.8623 -16.7863 -16.7382 -16.7195 -16.6620 -16.6585 -16.6312
   -16.5404 -16.5317  -2.2340   0.7916   3.9811   6.2393

          k = 0.0000-0.3536 0.3536 (   847 PWs)   bands (ev):

   -16.8694 -16.8652 -16.7880 -16.7553 -16.7267 -16.6561 -16.6383 -16.6244
   -16.5443 -16.5369  -2.7877   1.5605   4.2676   6.6444

          k = 0.4714 0.0000 0.0000 (   837 PWs)   bands (ev):

   -16.8542 -16.8542 -16.8316 -16.7337 -16.7147 -16.6922 -16.6294 -16.5739
   -16.5494 -16.5494  -2.8925   1.8828   5.5450   5.5450

          k = 0.5303 0.0589-0.0589 (   843 PWs)   bands (ev):

   -16.8632 -16.8554 -16.8167 -16.7311 -16.7246 -16.6826 -16.6430 -16.5916
   -16.5449 -16.5379  -2.3962   1.1253   5.0748   5.3884

          k =-0.1179-0.5893 0.5893 (   847 PWs)   bands (ev):

   -16.8731 -16.8591 -16.7979 -16.7348 -16.7129 -16.6790 -16.6566 -16.6111
   -16.5406 -16.5321  -1.8257   0.3969   4.3996   5.3877

          k =-0.0589-0.5303 0.5303 (   840 PWs)   bands (ev):

   -16.8791 -16.8588 -16.7862 -16.7159 -16.7031 -16.6877 -16.6628 -16.6243
   -16.5368 -16.5237  -1.4340  -0.0338   3.8704   5.5426

          k =-0.0000-0.4714 0.4714 (   856 PWs)   bands (ev):

   -16.8827 -16.8681 -16.7847 -16.7119 -16.7040 -16.6941 -16.6734 -16.6348
   -16.5371 -16.5276  -1.6941   0.2554   3.6815   5.8383

          k = 0.5893 0.0000 0.0000 (   838 PWs)   bands (ev):

   -16.8557 -16.8557 -16.8128 -16.7512 -16.7121 -16.6602 -16.6557 -16.5966
   -16.5363 -16.5363  -1.9295   0.4891   5.1945   5.1945

          k =-0.0589-0.6482 0.6482 (   836 PWs)   bands (ev):

   -16.8637 -16.8560 -16.7951 -16.7646 -16.6936 -16.6665 -16.6454 -16.6146
   -16.5337 -16.5323  -1.3603  -0.1691   4.8036   5.1558

          k = 0.0000-0.5893 0.5893 (   842 PWs)   bands (ev):

   -16.8748 -16.8593 -16.7847 -16.7540 -16.6898 -16.6765 -16.6582 -16.6259
   -16.5321 -16.5267  -0.9792  -0.5307   4.2111   5.2754

          k =-0.7071 0.0000 0.0000 (   846 PWs)   bands (ev):

   -16.8616 -16.8616 -16.7859 -16.7859 -16.6856 -16.6856 -16.6270 -16.6270
   -16.5353 -16.5353  -0.7928  -0.7928   5.0762   5.0762

          k = 0.2357 0.1179-0.0000 (   861 PWs)   bands (ev):

   -16.8550 -16.8465 -16.8306 -16.7813 -16.7607 -16.6446 -16.6063 -16.5839
   -16.5773 -16.5608  -4.1096   4.3442   6.3910   7.2662

          k = 0.2946 0.1768-0.0589 (   849 PWs)   bands (ev):

   -16.8575 -16.8481 -16.8195 -16.7699 -16.7481 -16.6518 -16.6129 -16.5925
   -16.5642 -16.5527  -3.7061   3.1527   5.7705   6.9755

          k = 0.3536 0.2357-0.1179 (   848 PWs)   bands (ev):

   -16.8634 -16.8548 -16.8079 -16.7617 -16.7411 -16.6548 -16.6198 -16.6074
   -16.5531 -16.5459  -3.1817   1.9414   5.4064   6.6447

          k =-0.2946-0.4125 0.5303 (   843 PWs)   bands (ev):

   -16.8652 -16.8573 -16.8017 -16.7525 -16.7389 -16.6499 -16.6256 -16.6177
   -16.5469 -16.5393  -2.6348   0.9471   5.2167   6.4055

          k =-0.2357-0.3536 0.4714 (   848 PWs)   bands (ev):

   -16.8685 -16.8586 -16.8004 -16.7475 -16.7426 -16.6446 -16.6342 -16.6240
   -16.5464 -16.5394  -2.3555   0.5141   5.1584   6.3192

          k = 0.3536 0.1179 0.0000 (   844 PWs)   bands (ev):

   -16.8580 -16.8494 -16.8262 -16.7613 -16.7316 -16.6740 -16.6108 -16.5821
   -16.5618 -16.5517  -3.5596   3.0371   5.6653   6.3332

          k = 0.4125 0.1768-0.0589 (   849 PWs)   bands (ev):

   -16.8657 -16.8573 -16.8128 -16.7532 -16.7219 -16.6833 -16.6227 -16.5993
   -16.5517 -16.5450  -3.0699   2.0451   5.0756   6.0541

          k =-0.2357-0.4714 0.5893 (   845 PWs)   bands (ev):

   -16.8724 -16.8595 -16.7983 -16.7412 -16.7186 -16.6814 -16.6334 -16.6143
   -16.5441 -16.5345  -2.5086   1.0933   4.6584   5.8570

          k =-0.1768-0.4125 0.5303 (   845 PWs)   bands (ev):

   -16.8758 -16.8618 -16.7898 -16.7349 -16.7229 -16.6726 -16.6436 -16.6240
   -16.5405 -16.5309  -2.0878   0.4836   4.3959   5.8394

          k =-0.1179-0.3536 0.4714 (   843 PWs)   bands (ev):

   -16.8725 -16.8626 -16.7867 -16.7402 -16.7221 -16.6656 -16.6429 -16.6275
   -16.5409 -16.5317  -2.2028   0.6451   4.3059   6.0050

          k =-0.0589-0.2946 0.4125 (   848 PWs)   bands (ev):

   -16.8688 -16.8633 -16.7933 -16.7523 -16.7242 -16.6682 -16.6271 -16.6268
   -16.5441 -16.5380  -2.7170   1.4183   4.4417   6.3155

          k = 0.0000-0.2357 0.3536 (   847 PWs)   bands (ev):

   -16.8629 -16.8599 -16.8058 -16.7599 -16.7339 -16.6622 -16.6222 -16.6062
   -16.5505 -16.5463  -3.2631   2.3419   4.9001   6.6932

          k = 0.4714 0.1179 0.0000 (   844 PWs)   bands (ev):

   -16.8623 -16.8579 -16.8184 -16.7367 -16.7103 -16.6999 -16.6298 -16.5925
   -16.5470 -16.5442  -2.8055   1.7280   5.1387   5.5708

          k =-0.1768-0.5303 0.6482 (   847 PWs)   bands (ev):

   -16.8713 -16.8627 -16.8001 -16.7268 -16.7170 -16.6935 -16.6441 -16.6107
   -16.5397 -16.5333  -2.2527   0.9308   4.5689   5.3633

          k =-0.1179-0.4714 0.5893 (   849 PWs)   bands (ev):

   -16.8794 -16.8657 -16.7860 -16.7188 -16.7107 -16.6936 -16.6569 -16.6267
   -16.5378 -16.5267  -1.7377   0.2880   4.0750   5.3659

          k =-0.0589-0.4125 0.5303 (   844 PWs)   bands (ev):

   -16.8791 -16.8655 -16.7782 -16.7192 -16.7020 -16.6922 -16.6615 -16.6327
   -16.5355 -16.5249  -1.6916   0.2405   3.8151   5.5588

          k =-0.0000-0.3536 0.4714 (   850 PWs)   bands (ev):

   -16.8774 -16.8673 -16.7811 -16.7359 -16.7103 -16.6802 -16.6528 -16.6339
   -16.5382 -16.5302  -2.1660   0.7943   3.9035   5.9000

          k =-0.1179-0.5893 0.7071 (   842 PWs)   bands (ev):

   -16.8643 -16.8630 -16.8014 -16.7453 -16.7108 -16.6671 -16.6541 -16.6075
   -16.5348 -16.5343  -1.8660   0.4443   4.8501   5.0593

          k =-0.0589-0.5303 0.6482 (   845 PWs)   bands (ev):

   -16.8738 -16.8642 -16.7821 -16.7461 -16.6992 -16.6696 -16.6655 -16.6281
   -16.5321 -16.5276  -1.2985  -0.1712   4.2962   5.0115

          k =-0.0000-0.4714 0.5893 (   841 PWs)   bands (ev):

   -16.8786 -16.8632 -16.7756 -16.7218 -16.6976 -16.6780 -16.6745 -16.6354
   -16.5317 -16.5238  -1.1997  -0.2473   3.8505   5.2068

          k =-0.7071 0.1179 0.0000 (   838 PWs)   bands (ev):

   -16.8619 -16.8619 -16.7753 -16.7753 -16.6838 -16.6838 -16.6337 -16.6337
   -16.5305 -16.5305  -0.7695  -0.7695   4.8197   4.8197

          k =-0.2357-0.4714 0.7071 (   843 PWs)   bands (ev):

   -16.8668 -16.8665 -16.7935 -16.7393 -16.7075 -16.6929 -16.6327 -16.6179
   -16.5391 -16.5371  -2.5535   1.3219   4.4416   5.7000

          k =-0.1768-0.4125 0.6482 (   849 PWs)   bands (ev):

   -16.8759 -16.8698 -16.7814 -16.7320 -16.7032 -16.6952 -16.6494 -16.6319
   -16.5360 -16.5291  -1.9959   0.5981   4.0925   5.3845

          k =-0.1179-0.3536 0.5893 (   842 PWs)   bands (ev):

   -16.8769 -16.8707 -16.7736 -16.7238 -16.6993 -16.6926 -16.6577 -16.6350
   -16.5305 -16.5251  -1.6891   0.2259   3.9869   5.2639

          k =-0.1179-0.4714 0.7071 (   848 PWs)   bands (ev):

   -16.8732 -16.8713 -16.7784 -16.7261 -16.7162 -16.6834 -16.6570 -16.6293
   -16.5328 -16.5288  -1.6907   0.2979   4.2653   4.8939

          k =-0.0589-0.4125 0.6482 (   850 PWs)   bands (ev):

   -16.8804 -16.8729 -16.7635 -16.7261 -16.7067 -16.6792 -16.6726 -16.6441
   -16.5304 -16.5243  -1.2304  -0.1798   3.9954   4.7436

          k = 0.0000-0.3536 0.5893 (   849 PWs)   bands (ev):

   -16.8799 -16.8723 -16.7677 -16.7149 -16.7111 -16.6868 -16.6696 -16.6421
   -16.5304 -16.5252  -1.4486   0.0504   3.8772   4.9570

          k =-0.7071 0.2357 0.0000 (   858 PWs)   bands (ev):

   -16.8766 -16.8766 -16.7559 -16.7559 -16.6900 -16.6900 -16.6560 -16.6560
   -16.5303 -16.5303  -0.7212  -0.7212   4.4081   4.4081

          k =-0.7071 0.3536 0.0000 (   848 PWs)   bands (ev):

   -16.8774 -16.8774 -16.7423 -16.7423 -16.6910 -16.6910 -16.6607 -16.6607
   -16.5255 -16.5255  -0.6961  -0.6961   4.2331   4.2331

     highest occupied level (ev):     8.1470

!    total energy              =    -426.13907792 Ry
     estimated scf accuracy    <       0.00000003 Ry

     The total energy is the sum of the following terms:
     one-electron contribution =    -278.97872172 Ry
     hartree contribution      =     164.83194061 Ry
     xc contribution           =    -114.49782175 Ry
     ewald contribution        =    -197.49447506 Ry

     convergence has been achieved in   6 iterations

     Forces acting on atoms (cartesian axes, Ry/au):

     atom    1 type  1   force =     0.00000000    0.00000000    0.00000000
     atom    2 type  1   force =     0.00000000    0.00000000    0.00000000

     Total force =     0.000000     Total SCF correction =     0.000000


     Computing stress (Cartesian axis) and pressure

          total   stress  (Ry/bohr**3)                   (kbar)     P=     -160.70
  -0.00109239  -0.00000000  -0.00000000         -160.70       -0.00       -0.00
  -0.00000000  -0.00109239  -0.00000000           -0.00     -160.70       -0.00
  -0.00000000  -0.00000000  -0.00109239           -0.00       -0.00     -160.70

     Message from routine punch:
     Nothing written, as per user request (disk_io='none')

     init_run     :      1.24s CPU      1.29s WALL (       1 calls)
     electrons    :     13.15s CPU     14.50s WALL (       1 calls)
     forces       :      0.17s CPU      0.22s WALL (       1 calls)
     stress       :      0.90s CPU      0.93s WALL (       1 calls)

     Called by init_run:
     wfcinit      :      0.83s CPU      0.86s WALL (       1 calls)
     potinit      :      0.02s CPU      0.02s WALL (       1 calls)
     hinit0       :      0.36s CPU      0.37s WALL (       1 calls)

     Called by electrons:
     c_bands      :     10.92s CPU     11.86s WALL (       7 calls)
     sum_band     :      2.03s CPU      2.30s WALL (       7 calls)
     v_of_rho     :      0.02s CPU      0.02s WALL (       7 calls)
     newd         :      0.20s CPU      0.29s WALL (       7 calls)
     mix_rho      :      0.01s CPU      0.01s WALL (       7 calls)

     Called by c_bands:
     init_us_2    :      0.48s CPU      0.54s WALL (    1224 calls)
     cegterg      :      9.85s CPU     10.71s WALL (     504 calls)

     Called by *egterg:
     cdiaghg      :      0.50s CPU      0.52s WALL (    1701 calls)
     h_psi        :      8.67s CPU      9.41s WALL (    1845 calls)
     s_psi        :      0.26s CPU      0.26s WALL (    1845 calls)
     g_psi        :      0.06s CPU      0.06s WALL (    1269 calls)

     Called by h_psi:
     h_psi:calbec :      0.34s CPU      0.37s WALL (    1845 calls)
     vloc_psi     :      7.97s CPU      8.67s WALL (    1845 calls)
     add_vuspsi   :      0.28s CPU      0.29s WALL (    1845 calls)

     General routines
     calbec       :      0.66s CPU      0.71s WALL (    3573 calls)
     fft          :      0.17s CPU      0.17s WALL (      37 calls)
     ffts         :      0.00s CPU      0.00s WALL (       7 calls)
     fftw         :      7.42s CPU      8.15s WALL (   46420 calls)

     Parallel routines

     PWSCF        :     15.61s CPU     17.10s WALL


   This run was terminated on:  23:56:39   7Oct2025            

=------------------------------------------------------------------------------=
   JOB DONE.
=------------------------------------------------------------------------------=
