LAMMPS (22 Jul 2025 - Update 1)
Reading data file ...
  orthogonal box = (0 0 0) to (8.7451919 7.5735584 11.520559)
  1 by 1 by 1 MPI processor grid
  reading atoms ...
  45 atoms
  read_data CPU = 0.001 seconds
WARNING: No fixes with time integration, atoms won't move
For more information see https://docs.lammps.org/err0028 (../verlet.cpp:60)
Generated 0 of 0 mixed pair_coeff terms from geometric mixing rule
Neighbor list info ...
  update: every = 1 steps, delay = 0 steps, check = yes
  max neighbors/atom: 2000, page size: 100000
  master list distance cutoff = 6.5
  ghost atom cutoff = 6.5
  binsize = 3.25, bins = 3 3 4
  1 neighbor lists, perpetual/occasional/extra = 1 0 0
  (1) pair lj/cut, perpetual
      attributes: half, newton on
      pair build: half/bin/atomonly/newton
      stencil: half/bin/3d
      bin: standard
Setting up Verlet run ...
  Unit style    : metal
  Current step  : 0
  Time step     : 0.001
Per MPI rank memory allocation (min/avg/max) = 3.053 | 3.053 | 3.053 Mbytes
   Step         PotEng           Lx             Ly             Lz           Press           Pxx            Pyy            Pzz      
         0  -85.516823      8.7451919      7.5735584      11.520559      224725.09     -38190.172      542200.81      170164.62    
Loop time of 1.923e-06 on 1 procs for 0 steps with 45 atoms

104.0% CPU use with 1 MPI tasks x no OpenMP threads

MPI task timing breakdown:
Section |  min time  |  avg time  |  max time  |%varavg| %total
---------------------------------------------------------------
Pair    | 0          | 0          | 0          |   0.0 |  0.00
Neigh   | 0          | 0          | 0          |   0.0 |  0.00
Comm    | 0          | 0          | 0          |   0.0 |  0.00
Output  | 0          | 0          | 0          |   0.0 |  0.00
Modify  | 0          | 0          | 0          |   0.0 |  0.00
Other   |            | 1.923e-06  |            |       |100.00

Nlocal:             45 ave          45 max          45 min
Histogram: 1 0 0 0 0 0 0 0 0 0
Nghost:            258 ave         258 max         258 min
Histogram: 1 0 0 0 0 0 0 0 0 0
Neighs:           1086 ave        1086 max        1086 min
Histogram: 1 0 0 0 0 0 0 0 0 0

Total # of neighbors = 1086
Ave neighs/atom = 24.133333
Neighbor list builds = 0
Dangerous builds = 0
Generated 0 of 0 mixed pair_coeff terms from geometric mixing rule
Setting up cg style minimization ...
  Unit style    : metal
  Current step  : 0
WARNING: Energy due to 3 extra global DOFs will be included in minimizer energies
 (../min.cpp:222)
Per MPI rank memory allocation (min/avg/max) = 4.178 | 4.178 | 4.178 Mbytes
   Step         PotEng           Lx             Ly             Lz           Press           Pxx            Pyy            Pzz      
         0  -85.516823      8.7451919      7.5735584      11.520559      224725.09     -38190.172      542200.81      170164.62    
        53  -91.19107       9.0793866      7.8629795      11.520559      35531.025     -141427.34      157632.53      90387.884    
Loop time of 0.00602354 on 1 procs for 53 steps with 45 atoms

97.7% CPU use with 1 MPI tasks x no OpenMP threads

Minimization stats:
  Stopping criterion = linesearch alpha is zero
  Energy initial, next-to-last, final = 
      -85.516822956328  -91.1910701427864  -91.1910701427864
  Force two-norm initial, final = 175.86405 29.788707
  Force max component initial, final = 120.01685 5.5509419
  Final line search alpha, max atom move = 7.4388585e-12 4.1292671e-11
  Iterations, force evaluations = 53 252

MPI task timing breakdown:
Section |  min time  |  avg time  |  max time  |%varavg| %total
---------------------------------------------------------------
Pair    | 0.0039387  | 0.0039387  | 0.0039387  |   0.0 | 65.39
Neigh   | 0          | 0          | 0          |   0.0 |  0.00
Comm    | 0.00032989 | 0.00032989 | 0.00032989 |   0.0 |  5.48
Output  | 0          | 0          | 0          |   0.0 |  0.00
Modify  | 0          | 0          | 0          |   0.0 |  0.00
Other   |            | 0.001755   |            |       | 29.13

Nlocal:             45 ave          45 max          45 min
Histogram: 1 0 0 0 0 0 0 0 0 0
Nghost:            258 ave         258 max         258 min
Histogram: 1 0 0 0 0 0 0 0 0 0
Neighs:           1086 ave        1086 max        1086 min
Histogram: 1 0 0 0 0 0 0 0 0 0

Total # of neighbors = 1086
Ave neighs/atom = 24.133333
Neighbor list builds = 0
Dangerous builds = 0
Total energy (eV) = -91.1910701427864
Number of atoms = 45
Lattice constant (Angstoms) = 9.07938664274265
Total wall time: 0:00:00
