
     Program PWSCF v.7.4.1 starts on 20Oct2025 at 23:17:36 

     This program is part of the open-source Quantum ESPRESSO suite
     for quantum simulation of materials; please cite
         "P. Giannozzi et al., J. Phys.:Condens. Matter 21 395502 (2009);
         "P. Giannozzi et al., J. Phys.:Condens. Matter 29 465901 (2017);
         "P. Giannozzi et al., J. Chem. Phys. 152 154105 (2020);
          URL http://www.quantum-espresso.org", 
     in publications or presentations arising from this work. More details at
     http://www.quantum-espresso.org/quote

     Parallel version (MPI), running on     2 processors

     MPI processes distributed on     1 nodes
     261 MiB available memory on the printing compute node when the environment starts

     Waiting for input...
     Reading input from standard input
Warning: card &CELL ignored
Warning: card / ignored

     Current dimensions of program PWSCF are:
     Max number of different atomic species (ntypx) = 10
     Max number of k-points (npk) =  40000
     Max angular momentum in pseudopotentials (lmaxx) =  4
     file Fe.pbe-nd-rrkjus.UPF: wavefunction(s)  4S renormalized
     Message from routine setup:
     using ibrav=0 with symmetry is DISCOURAGED, use correct ibrav instead

     R & G space division:  proc/nbgrp/npool/nimage =       2
     Subspace diagonalization in iterative solution of the eigenvalue problem:
     a serial algorithm will be used


     Parallelization info
     --------------------
     sticks:   dense  smooth     PW     G-vecs:    dense   smooth      PW
     Min         253     102     47                 3577      932     301
     Max         254     103     48                 3578      933     302
     Sum         507     205     95                 7155     1865     603

     Using Slab Decomposition



     bravais-lattice index     =            0
     lattice parameter (alat)  =       4.7460  a.u.
     unit-cell volume          =      82.2926 (a.u.)^3
     number of atoms/cell      =            1
     number of atomic types    =            1
     number of electrons       =         8.00
     number of Kohn-Sham states=            8
     kinetic-energy cutoff     =      30.0000  Ry
     charge density cutoff     =     300.0000  Ry
     scf convergence threshold =      1.0E-07
     mixing beta               =       0.5000
     number of iterations used =            8  plain     mixing
     Exchange-correlation=  SLA  PW   PBE  PBE
                           (   1   4   3   4   0   0   0)

     celldm(1)=   4.745997  celldm(2)=   0.000000  celldm(3)=   0.000000
     celldm(4)=   0.000000  celldm(5)=   0.000000  celldm(6)=   0.000000

     crystal axes: (cart. coord. in units of alat)
               a(1) = (  -0.577350   0.577350   0.577350 )  
               a(2) = (   0.577350  -0.577350   0.577350 )  
               a(3) = (   0.577350   0.577350  -0.577350 )  

     reciprocal axes: (cart. coord. in units 2 pi/alat)
               b(1) = (  0.000000  0.866025  0.866025 )  
               b(2) = (  0.866025  0.000000  0.866025 )  
               b(3) = (  0.866025  0.866025  0.000000 )  


     PseudoPot. # 1 for Fe read from file:
     /home/bond/Software/QE/qe-7.4.1/pseudo/Fe.pbe-nd-rrkjus.UPF
     MD5 check sum: 398036227a04b607635f6f5e8dfd8242
     Pseudo is Ultrasoft + core correction, Zval =  8.0
     Generated by new atomic code, or converted to UPF format
     Using radial grid of  957 points,  6 beta functions with: 
                l(1) =   0
                l(2) =   0
                l(3) =   1
                l(4) =   1
                l(5) =   2
                l(6) =   2
     Q(r) pseudized with 0 coefficients 


     atomic species   valence    mass     pseudopotential
     Fe                8.00    55.84500     Fe( 1.00)

     Starting magnetic structure 
     atomic species   magnetization
     Fe              0.700

     48 Sym. Ops., with inversion, found



   Cartesian axes

     site n.     atom                  positions (alat units)
         1        Fe     tau(   1) = (   0.0000000   0.0000000   0.0000000  )

     number of k points=   104  Methfessel-Paxton smearing, width (Ry)=  0.0200

     Number of k-points >= 100: set verbosity='high' to print them.

     Dense  grid:     7155 G-vectors     FFT dimensions: (  27,  27,  27)

     Smooth grid:     1865 G-vectors     FFT dimensions: (  18,  18,  18)

     Estimated max dynamical RAM per process >      19.04 MB

     Estimated total dynamical RAM >      38.07 MB

     Check: negative core charge=   -0.000005
     Generating pointlists ...
     new r_m :   0.4125 (alat units)  1.9577 (a.u.) for type    1

     Initial potential from superposition of free atoms

     starting charge       7.9994, renormalised to       8.0000
     Starting wfcs are    6 randomized atomic wfcs +    2 random wfcs

     total cpu time spent up to now is        1.1 secs

     Self-consistent Calculation

     iteration #  1     ecut=    30.00 Ry     beta= 0.50
     Davidson diagonalization with overlap
     ethr =  1.00E-02,  avg # of iterations =  4.5

     total cpu time spent up to now is        2.4 secs

     total energy              =     -55.66326483 Ry
     estimated scf accuracy    <       0.34034474 Ry

     total magnetization       =     3.17 Bohr mag/cell
     absolute magnetization    =     3.17 Bohr mag/cell

     iteration #  2     ecut=    30.00 Ry     beta= 0.50
     Davidson diagonalization with overlap
     ethr =  4.25E-03,  avg # of iterations =  1.8

     total cpu time spent up to now is        3.2 secs

     total energy              =     -55.76958522 Ry
     estimated scf accuracy    <       0.06681041 Ry

     total magnetization       =     2.85 Bohr mag/cell
     absolute magnetization    =     2.86 Bohr mag/cell

     iteration #  3     ecut=    30.00 Ry     beta= 0.50
     Davidson diagonalization with overlap
     ethr =  8.35E-04,  avg # of iterations =  1.1

     total cpu time spent up to now is        4.0 secs

     total energy              =     -55.79667627 Ry
     estimated scf accuracy    <       0.00720315 Ry

     total magnetization       =     2.81 Bohr mag/cell
     absolute magnetization    =     2.86 Bohr mag/cell

     iteration #  4     ecut=    30.00 Ry     beta= 0.50
     Davidson diagonalization with overlap
     ethr =  9.00E-05,  avg # of iterations =  2.2

     total cpu time spent up to now is        5.0 secs

     total energy              =     -55.80146664 Ry
     estimated scf accuracy    <       0.00035913 Ry

     total magnetization       =     2.57 Bohr mag/cell
     absolute magnetization    =     2.73 Bohr mag/cell

     iteration #  5     ecut=    30.00 Ry     beta= 0.50
     Davidson diagonalization with overlap
     c_bands:  1 eigenvalues not converged
     c_bands:  1 eigenvalues not converged
     ethr =  4.49E-06,  avg # of iterations =  5.9

     total cpu time spent up to now is        6.3 secs

     total energy              =     -55.80166594 Ry
     estimated scf accuracy    <       0.00003782 Ry

     total magnetization       =     2.54 Bohr mag/cell
     absolute magnetization    =     2.72 Bohr mag/cell

     iteration #  6     ecut=    30.00 Ry     beta= 0.50
     Davidson diagonalization with overlap
     ethr =  4.73E-07,  avg # of iterations =  3.2

     total cpu time spent up to now is        7.4 secs

     total energy              =     -55.80169178 Ry
     estimated scf accuracy    <       0.00000767 Ry

     total magnetization       =     2.54 Bohr mag/cell
     absolute magnetization    =     2.71 Bohr mag/cell

     iteration #  7     ecut=    30.00 Ry     beta= 0.50
     Davidson diagonalization with overlap
     ethr =  9.59E-08,  avg # of iterations =  2.8

     total cpu time spent up to now is        8.4 secs

     total energy              =     -55.80169447 Ry
     estimated scf accuracy    <       0.00000165 Ry

     total magnetization       =     2.54 Bohr mag/cell
     absolute magnetization    =     2.71 Bohr mag/cell

     iteration #  8     ecut=    30.00 Ry     beta= 0.50
     Davidson diagonalization with overlap
     ethr =  2.07E-08,  avg # of iterations =  2.8

     total cpu time spent up to now is        9.3 secs

     total energy              =     -55.80169506 Ry
     estimated scf accuracy    <       0.00000049 Ry

     total magnetization       =     2.54 Bohr mag/cell
     absolute magnetization    =     2.71 Bohr mag/cell

     iteration #  9     ecut=    30.00 Ry     beta= 0.50
     Davidson diagonalization with overlap
     ethr =  6.17E-09,  avg # of iterations =  2.7

     Magnetic moment per site  (integrated on atomic sphere of radius R)
     atom   1 (R=0.413)  charge=  6.5027  magn=  2.6161

     total cpu time spent up to now is       10.4 secs

     End of self-consistent calculation

     Number of k-points >= 100: set verbosity='high' to print the bands.

     the Fermi energy is    12.3948 ev

!    total energy              =     -55.80169533 Ry
     estimated scf accuracy    <       0.00000001 Ry
     smearing contrib. (-TS)   =       0.00032511 Ry
     internal energy E=F+TS    =     -55.80202044 Ry

     The total energy is F=E-TS. E is the sum of the following terms:
     one-electron contribution =       6.24329560 Ry
     hartree contribution      =       6.89855396 Ry
     xc contribution           =     -26.44346930 Ry
     ewald contribution        =     -42.50040070 Ry

     total magnetization       =     2.54 Bohr mag/cell
     absolute magnetization    =     2.71 Bohr mag/cell

     convergence has been achieved in   9 iterations

     Forces acting on atoms (cartesian axes, Ry/au):

     atom    1 type  1   force =     0.00000000    0.00000000    0.00000000

     Total force =     0.000000     Total SCF correction =     0.000000


     Computing stress (Cartesian axis) and pressure

          total   stress  (Ry/bohr**3)                   (kbar)     P=      -57.39
  -0.00039013   0.00000000   0.00000000          -57.39        0.00        0.00
  -0.00000000  -0.00039013   0.00000000           -0.00      -57.39        0.00
   0.00000000   0.00000000  -0.00039013            0.00        0.00      -57.39

     Message from routine punch:
     Nothing written, as per user request (disk_io='none')

     init_run     :      0.83s CPU      0.94s WALL (       1 calls)
     electrons    :      8.68s CPU      9.31s WALL (       1 calls)
     forces       :      0.08s CPU      0.08s WALL (       1 calls)
     stress       :      0.44s CPU      0.45s WALL (       1 calls)

     Called by init_run:
     wfcinit      :      0.43s CPU      0.53s WALL (       1 calls)
     potinit      :      0.14s CPU      0.14s WALL (       1 calls)
     hinit0       :      0.23s CPU      0.23s WALL (       1 calls)

     Called by electrons:
     c_bands      :      7.09s CPU      7.61s WALL (       9 calls)
     sum_band     :      1.31s CPU      1.41s WALL (       9 calls)
     v_of_rho     :      0.14s CPU      0.14s WALL (      10 calls)
     newd         :      0.15s CPU      0.17s WALL (      10 calls)
     mix_rho      :      0.01s CPU      0.01s WALL (       9 calls)

     Called by c_bands:
     init_us_2    :      0.20s CPU      0.22s WALL (    4368 calls)
     cegterg      :      6.70s CPU      7.18s WALL (    1872 calls)

     Called by *egterg:
     cdiaghg      :      0.72s CPU      0.77s WALL (    7527 calls)
     h_psi        :      5.59s CPU      6.07s WALL (    7735 calls)
     s_psi        :      0.07s CPU      0.07s WALL (    7735 calls)
     g_psi        :      0.02s CPU      0.02s WALL (    5655 calls)

     Called by h_psi:
     h_psi:calbec :      0.26s CPU      0.28s WALL (    7735 calls)
     vloc_psi     :      5.16s CPU      5.61s WALL (    7735 calls)
     add_vuspsi   :      0.08s CPU      0.09s WALL (    7735 calls)

     General routines
     calbec       :      0.38s CPU      0.40s WALL (   13143 calls)
     fft          :      0.13s CPU      0.14s WALL (     288 calls)
     ffts         :      0.11s CPU      0.11s WALL (      38 calls)
     fftw         :      5.26s CPU      5.71s WALL (   94622 calls)
     interpolate  :      0.11s CPU      0.12s WALL (      20 calls)

     Parallel routines

     PWSCF        :     10.17s CPU     10.94s WALL


   This run was terminated on:  23:17:47  20Oct2025            

=------------------------------------------------------------------------------=
   JOB DONE.
=------------------------------------------------------------------------------=
