
     Program PWSCF v.7.4.1 starts on  7Oct2025 at 23:57:18 

     This program is part of the open-source Quantum ESPRESSO suite
     for quantum simulation of materials; please cite
         "P. Giannozzi et al., J. Phys.:Condens. Matter 21 395502 (2009);
         "P. Giannozzi et al., J. Phys.:Condens. Matter 29 465901 (2017);
         "P. Giannozzi et al., J. Chem. Phys. 152 154105 (2020);
          URL http://www.quantum-espresso.org", 
     in publications or presentations arising from this work. More details at
     http://www.quantum-espresso.org/quote

     Parallel version (MPI), running on     1 processors

     MPI processes distributed on     1 nodes
     232 MiB available memory on the printing compute node when the environment starts

     Waiting for input...
     Reading input from standard input
Warning: card &CELL ignored
Warning: card / ignored

     Current dimensions of program PWSCF are:
     Max number of different atomic species (ntypx) = 10
     Max number of k-points (npk) =  40000
     Max angular momentum in pseudopotentials (lmaxx) =  4
     Message from routine setup:
     using ibrav=0 with symmetry is DISCOURAGED, use correct ibrav instead

     Subspace diagonalization in iterative solution of the eigenvalue problem:
     a serial algorithm will be used


     G-vector sticks info
     --------------------
     sticks:   dense  smooth     PW     G-vecs:    dense   smooth      PW
     Sum         385     385    121                 5065     5065     941

     Using Slab Decomposition



     bravais-lattice index     =            0
     lattice parameter (alat)  =       7.5604  a.u.
     unit-cell volume          =     305.5804 (a.u.)^3
     number of atoms/cell      =            2
     number of atomic types    =            1
     number of electrons       =        28.00
     number of Kohn-Sham states=           14
     kinetic-energy cutoff     =      25.0000  Ry
     charge density cutoff     =     100.0000  Ry
     scf convergence threshold =      1.0E-07
     mixing beta               =       0.5000
     number of iterations used =            8  plain     mixing
     Exchange-correlation=  SLA  PZ   NOGX NOGC
                           (   1   1   0   0   0   0   0)

     celldm(1)=   7.560435  celldm(2)=   0.000000  celldm(3)=   0.000000
     celldm(4)=   0.000000  celldm(5)=   0.000000  celldm(6)=   0.000000

     crystal axes: (cart. coord. in units of alat)
               a(1) = (   0.000000   0.707107   0.707107 )  
               a(2) = (   0.707107   0.000000   0.707107 )  
               a(3) = (   0.707107   0.707107   0.000000 )  

     reciprocal axes: (cart. coord. in units 2 pi/alat)
               b(1) = ( -0.707107  0.707107  0.707107 )  
               b(2) = (  0.707107 -0.707107  0.707107 )  
               b(3) = (  0.707107  0.707107 -0.707107 )  


     PseudoPot. # 1 for Ge read from file:
     /home/bond/Software/QE/qe-7.4.1/pseudo/ge_lda_v1.4.uspp.F.UPF
     MD5 check sum: bf9d52b59cc8a669818bb2b52e0c2ba0
     Pseudo is Ultrasoft + core correction, Zval = 14.0
     Generated by new atomic code, or converted to UPF format
     Using radial grid of  873 points,  6 beta functions with: 
                l(1) =   0
                l(2) =   0
                l(3) =   1
                l(4) =   1
                l(5) =   2
                l(6) =   2
     Q(r) pseudized with  8 coefficients,  rinner =    1.400   1.400   1.400
                                                       1.400   1.400

     atomic species   valence    mass     pseudopotential
     Ge               14.00    72.63000     Ge( 1.00)

     48 Sym. Ops., with inversion, found (24 have fractional translation)



   Cartesian axes

     site n.     atom                  positions (alat units)
         1        Ge     tau(   1) = (   0.0000000   0.0000000   0.0000000  )
         2        Ge     tau(   2) = (   0.3535534   0.3535534   0.3535534  )

     number of k points=     8
                       cart. coord. in units 2pi/alat
        k(    1) = (   0.0000000   0.0000000   0.0000000), wk =   0.0312500
        k(    2) = (   0.1767767   0.1767767  -0.1767767), wk =   0.2500000
        k(    3) = (  -0.3535534  -0.3535534   0.3535534), wk =   0.1250000
        k(    4) = (   0.3535534   0.0000000   0.0000000), wk =   0.1875000
        k(    5) = (  -0.1767767  -0.5303301   0.5303301), wk =   0.7500000
        k(    6) = (   0.0000000  -0.3535534   0.3535534), wk =   0.3750000
        k(    7) = (  -0.7071068   0.0000000   0.0000000), wk =   0.0937500
        k(    8) = (  -0.7071068   0.3535534   0.0000000), wk =   0.1875000

     Dense  grid:     5065 G-vectors     FFT dimensions: (  32,  32,  32)

     Estimated max dynamical RAM per process >      22.29 MB

     Check: negative core charge=   -0.000710

     Initial potential from superposition of free atoms

     starting charge      27.9986, renormalised to      28.0000
     Starting wfcs are   18 randomized atomic wfcs

     total cpu time spent up to now is        0.9 secs

     Self-consistent Calculation

     iteration #  1     ecut=    25.00 Ry     beta= 0.50
     Davidson diagonalization with overlap
     ethr =  1.00E-02,  avg # of iterations =  1.6

     Threshold (ethr) on eigenvalues was too large:
     Diagonalizing with lowered threshold

     Davidson diagonalization with overlap
     ethr =  1.76E-04,  avg # of iterations =  1.8

     total cpu time spent up to now is        1.2 secs

     total energy              =    -425.89527693 Ry
     estimated scf accuracy    <       0.05402450 Ry

     iteration #  2     ecut=    25.00 Ry     beta= 0.50
     Davidson diagonalization with overlap
     ethr =  1.93E-04,  avg # of iterations =  1.0

     total cpu time spent up to now is        1.4 secs

     total energy              =    -425.89562350 Ry
     estimated scf accuracy    <       0.00758216 Ry

     iteration #  3     ecut=    25.00 Ry     beta= 0.50
     Davidson diagonalization with overlap
     ethr =  2.71E-05,  avg # of iterations =  2.0

     total cpu time spent up to now is        1.6 secs

     total energy              =    -425.89624961 Ry
     estimated scf accuracy    <       0.00012880 Ry

     iteration #  4     ecut=    25.00 Ry     beta= 0.50
     Davidson diagonalization with overlap
     ethr =  4.60E-07,  avg # of iterations =  3.4

     total cpu time spent up to now is        1.8 secs

     total energy              =    -425.89627987 Ry
     estimated scf accuracy    <       0.00001023 Ry

     iteration #  5     ecut=    25.00 Ry     beta= 0.50
     Davidson diagonalization with overlap
     ethr =  3.65E-08,  avg # of iterations =  3.0

     total cpu time spent up to now is        2.0 secs

     total energy              =    -425.89628144 Ry
     estimated scf accuracy    <       0.00000030 Ry

     iteration #  6     ecut=    25.00 Ry     beta= 0.50
     Davidson diagonalization with overlap
     ethr =  1.09E-09,  avg # of iterations =  4.2

     total cpu time spent up to now is        2.2 secs

     End of self-consistent calculation

          k = 0.0000 0.0000 0.0000 (   645 PWs)   bands (ev):

   -17.1246 -17.1246 -17.1246 -17.1031 -17.1031 -16.9096 -16.9096 -16.8257
   -16.8257 -16.8257  -4.6200   7.9831   8.1927   8.1927

          k = 0.1768 0.1768-0.1768 (   637 PWs)   bands (ev):

   -17.1446 -17.1446 -17.1141 -17.0439 -17.0439 -16.8888 -16.8888 -16.8332
   -16.8332 -16.8162  -3.8798   3.4123   7.3108   7.3108

          k =-0.3536-0.3536 0.3536 (   628 PWs)   bands (ev):

   -17.1609 -17.1609 -17.1146 -16.9873 -16.9873 -16.8726 -16.8726 -16.8540
   -16.7833 -16.7833  -2.5384   0.5481   6.7907   6.7907

          k = 0.3536 0.0000 0.0000 (   649 PWs)   bands (ev):

   -17.1789 -17.1789 -17.1148 -17.1099 -16.9762 -16.9559 -16.9052 -16.8452
   -16.8452 -16.8294  -3.6124   3.3970   6.1556   6.1556

          k =-0.1768-0.5303 0.5303 (   649 PWs)   bands (ev):

   -17.1954 -17.1894 -17.0792 -17.0302 -16.9987 -16.9696 -16.9369 -16.8865
   -16.8166 -16.8154  -2.1286   0.7514   4.4488   5.7924

          k = 0.0000-0.3536 0.3536 (   636 PWs)   bands (ev):

   -17.1747 -17.1522 -17.0736 -17.0412 -16.9706 -16.9185 -16.9172 -16.8503
   -16.8173 -16.7885  -2.7407   1.6036   4.3107   6.6895

          k =-0.7071 0.0000 0.0000 (   636 PWs)   bands (ev):

   -17.1729 -17.1729 -17.0035 -17.0035 -16.9720 -16.9720 -16.8800 -16.8800
   -16.8272 -16.8272  -0.7475  -0.7475   5.1211   5.1211

          k =-0.7071 0.3536 0.0000 (   648 PWs)   bands (ev):

   -17.1836 -17.1836 -17.0342 -17.0342 -16.9836 -16.9836 -16.9313 -16.9313
   -16.8091 -16.8091  -0.6512  -0.6512   4.2764   4.2764

     highest occupied level (ev):     8.1927

!    total energy              =    -425.89628164 Ry
     estimated scf accuracy    <       0.00000006 Ry

     The total energy is the sum of the following terms:
     one-electron contribution =    -278.26812083 Ry
     hartree contribution      =     164.19563796 Ry
     xc contribution           =    -114.32932372 Ry
     ewald contribution        =    -197.49447505 Ry

     convergence has been achieved in   6 iterations

     Forces acting on atoms (cartesian axes, Ry/au):

     atom    1 type  1   force =     0.00000000   -0.00000000    0.00000000
     atom    2 type  1   force =     0.00000000    0.00000000    0.00000000

     Total force =     0.000000     Total SCF correction =     0.000000


     Computing stress (Cartesian axis) and pressure

          total   stress  (Ry/bohr**3)                   (kbar)     P=     -761.66
  -0.00517767   0.00000000   0.00000000         -761.66        0.00        0.00
   0.00000000  -0.00517767   0.00000000            0.00     -761.66        0.00
   0.00000000   0.00000000  -0.00517767            0.00        0.00     -761.66

     Message from routine punch:
     Nothing written, as per user request (disk_io='none')

     init_run     :      0.60s CPU      0.61s WALL (       1 calls)
     electrons    :      1.31s CPU      1.34s WALL (       1 calls)
     forces       :      0.03s CPU      0.03s WALL (       1 calls)
     stress       :      0.25s CPU      0.25s WALL (       1 calls)

     Called by init_run:
     wfcinit      :      0.21s CPU      0.21s WALL (       1 calls)
     potinit      :      0.02s CPU      0.02s WALL (       1 calls)
     hinit0       :      0.35s CPU      0.35s WALL (       1 calls)

     Called by electrons:
     c_bands      :      0.90s CPU      0.92s WALL (       7 calls)
     sum_band     :      0.29s CPU      0.30s WALL (       7 calls)
     v_of_rho     :      0.02s CPU      0.02s WALL (       7 calls)
     newd         :      0.12s CPU      0.12s WALL (       7 calls)
     mix_rho      :      0.00s CPU      0.00s WALL (       7 calls)

     Called by c_bands:
     init_us_2    :      0.03s CPU      0.03s WALL (     136 calls)
     cegterg      :      0.82s CPU      0.84s WALL (      56 calls)

     Called by *egterg:
     cdiaghg      :      0.05s CPU      0.05s WALL (     184 calls)
     h_psi        :      0.87s CPU      0.89s WALL (     200 calls)
     s_psi        :      0.02s CPU      0.02s WALL (     200 calls)
     g_psi        :      0.00s CPU      0.00s WALL (     136 calls)

     Called by h_psi:
     h_psi:calbec :      0.03s CPU      0.03s WALL (     200 calls)
     vloc_psi     :      0.82s CPU      0.84s WALL (     200 calls)
     add_vuspsi   :      0.02s CPU      0.02s WALL (     200 calls)

     General routines
     calbec       :      0.05s CPU      0.05s WALL (     392 calls)
     fft          :      0.17s CPU      0.17s WALL (      37 calls)
     ffts         :      0.00s CPU      0.00s WALL (       7 calls)
     fftw         :      0.77s CPU      0.78s WALL (    5036 calls)

     Parallel routines

     PWSCF        :      2.39s CPU      2.52s WALL


   This run was terminated on:  23:57:20   7Oct2025            

=------------------------------------------------------------------------------=
   JOB DONE.
=------------------------------------------------------------------------------=
