
     Program PWSCF v.7.4.1 starts on  9Oct2025 at 13: 2:50 

     This program is part of the open-source Quantum ESPRESSO suite
     for quantum simulation of materials; please cite
         "P. Giannozzi et al., J. Phys.:Condens. Matter 21 395502 (2009);
         "P. Giannozzi et al., J. Phys.:Condens. Matter 29 465901 (2017);
         "P. Giannozzi et al., J. Chem. Phys. 152 154105 (2020);
          URL http://www.quantum-espresso.org", 
     in publications or presentations arising from this work. More details at
     http://www.quantum-espresso.org/quote

     Parallel version (MPI), running on     1 processors

     MPI processes distributed on     1 nodes
     435 MiB available memory on the printing compute node when the environment starts

     Waiting for input...
     Reading input from standard input
Warning: card &CELL ignored
Warning: card / ignored

     Current dimensions of program PWSCF are:
     Max number of different atomic species (ntypx) = 10
     Max number of k-points (npk) =  40000
     Max angular momentum in pseudopotentials (lmaxx) =  4
     Message from routine setup:
     using ibrav=0 with symmetry is DISCOURAGED, use correct ibrav instead

     Subspace diagonalization in iterative solution of the eigenvalue problem:
     a serial algorithm will be used


     G-vector sticks info
     --------------------
     sticks:   dense  smooth     PW     G-vecs:    dense   smooth      PW
     Sum        1039    1039    301                22075    22075    3479

     Using Slab Decomposition



     bravais-lattice index     =            0
     lattice parameter (alat)  =       7.5872  a.u.
     unit-cell volume          =     308.8323 (a.u.)^3
     number of atoms/cell      =            2
     number of atomic types    =            1
     number of electrons       =        28.00
     number of Kohn-Sham states=           14
     kinetic-energy cutoff     =      65.0000  Ry
     charge density cutoff     =     260.0000  Ry
     scf convergence threshold =      1.0E-07
     mixing beta               =       0.5000
     number of iterations used =            8  plain     mixing
     Exchange-correlation=  SLA  PZ   NOGX NOGC
                           (   1   1   0   0   0   0   0)

     celldm(1)=   7.587160  celldm(2)=   0.000000  celldm(3)=   0.000000
     celldm(4)=   0.000000  celldm(5)=   0.000000  celldm(6)=   0.000000

     crystal axes: (cart. coord. in units of alat)
               a(1) = (   0.000000   0.707107   0.707107 )  
               a(2) = (   0.707107   0.000000   0.707107 )  
               a(3) = (   0.707107   0.707107   0.000000 )  

     reciprocal axes: (cart. coord. in units 2 pi/alat)
               b(1) = ( -0.707107  0.707107  0.707107 )  
               b(2) = (  0.707107 -0.707107  0.707107 )  
               b(3) = (  0.707107  0.707107 -0.707107 )  


     PseudoPot. # 1 for Ge read from file:
     /home/bond/Software/QE/qe-7.4.1/pseudo/ge_lda_v1.4.uspp.F.UPF
     MD5 check sum: bf9d52b59cc8a669818bb2b52e0c2ba0
     Pseudo is Ultrasoft + core correction, Zval = 14.0
     Generated by new atomic code, or converted to UPF format
     Using radial grid of  873 points,  6 beta functions with: 
                l(1) =   0
                l(2) =   0
                l(3) =   1
                l(4) =   1
                l(5) =   2
                l(6) =   2
     Q(r) pseudized with  8 coefficients,  rinner =    1.400   1.400   1.400
                                                       1.400   1.400

     atomic species   valence    mass     pseudopotential
     Ge               14.00    72.63000     Ge( 1.00)

     48 Sym. Ops., with inversion, found (24 have fractional translation)



   Cartesian axes

     site n.     atom                  positions (alat units)
         1        Ge     tau(   1) = (   0.0000000   0.0000000   0.0000000  )
         2        Ge     tau(   2) = (   0.3535534   0.3535534   0.3535534  )

     number of k points=     8
                       cart. coord. in units 2pi/alat
        k(    1) = (   0.0000000   0.0000000   0.0000000), wk =   0.0312500
        k(    2) = (   0.1767767   0.1767767  -0.1767767), wk =   0.2500000
        k(    3) = (  -0.3535534  -0.3535534   0.3535534), wk =   0.1250000
        k(    4) = (   0.3535534   0.0000000   0.0000000), wk =   0.1875000
        k(    5) = (  -0.1767767  -0.5303301   0.5303301), wk =   0.7500000
        k(    6) = (   0.0000000  -0.3535534   0.3535534), wk =   0.3750000
        k(    7) = (  -0.7071068   0.0000000   0.0000000), wk =   0.0937500
        k(    8) = (  -0.7071068   0.3535534   0.0000000), wk =   0.1875000

     Dense  grid:    22075 G-vectors     FFT dimensions: (  40,  40,  40)

     Estimated max dynamical RAM per process >      89.33 MB

     Initial potential from superposition of free atoms

     starting charge      27.9986, renormalised to      28.0000
     Starting wfcs are   18 randomized atomic wfcs

     total cpu time spent up to now is        0.9 secs

     Self-consistent Calculation

     iteration #  1     ecut=    65.00 Ry     beta= 0.50
     Davidson diagonalization with overlap
     ethr =  1.00E-02,  avg # of iterations =  1.5

     Threshold (ethr) on eigenvalues was too large:
     Diagonalizing with lowered threshold

     Davidson diagonalization with overlap
     ethr =  1.28E-04,  avg # of iterations =  2.0

     total cpu time spent up to now is        1.7 secs

     total energy              =    -426.15255239 Ry
     estimated scf accuracy    <       0.03870645 Ry

     iteration #  2     ecut=    65.00 Ry     beta= 0.50
     Davidson diagonalization with overlap
     ethr =  1.38E-04,  avg # of iterations =  1.1

     total cpu time spent up to now is        2.1 secs

     total energy              =    -426.15103412 Ry
     estimated scf accuracy    <       0.00688343 Ry

     iteration #  3     ecut=    65.00 Ry     beta= 0.50
     Davidson diagonalization with overlap
     ethr =  2.46E-05,  avg # of iterations =  2.0

     total cpu time spent up to now is        2.5 secs

     total energy              =    -426.15152528 Ry
     estimated scf accuracy    <       0.00007386 Ry

     iteration #  4     ecut=    65.00 Ry     beta= 0.50
     Davidson diagonalization with overlap
     ethr =  2.64E-07,  avg # of iterations =  3.4

     total cpu time spent up to now is        3.0 secs

     total energy              =    -426.15154469 Ry
     estimated scf accuracy    <       0.00000317 Ry

     iteration #  5     ecut=    65.00 Ry     beta= 0.50
     Davidson diagonalization with overlap
     ethr =  1.13E-08,  avg # of iterations =  3.1

     total cpu time spent up to now is        3.5 secs

     total energy              =    -426.15154557 Ry
     estimated scf accuracy    <       0.00000014 Ry

     iteration #  6     ecut=    65.00 Ry     beta= 0.50
     Davidson diagonalization with overlap
     ethr =  5.11E-10,  avg # of iterations =  3.9

     total cpu time spent up to now is        4.0 secs

     End of self-consistent calculation

          k = 0.0000 0.0000 0.0000 (  2733 PWs)   bands (ev):

   -16.8025 -16.8025 -16.8025 -16.7672 -16.7672 -16.5618 -16.5618 -16.5618
   -16.5494 -16.5494  -4.6867   7.7742   8.0585   8.0585

          k = 0.1768 0.1768-0.1768 (  2731 PWs)   bands (ev):

   -16.8202 -16.8202 -16.7941 -16.7395 -16.7395 -16.5872 -16.5872 -16.5716
   -16.5291 -16.5291  -3.9525   3.2889   7.1835   7.1835

          k =-0.3536-0.3536 0.3536 (  2764 PWs)   bands (ev):

   -16.8264 -16.8264 -16.7854 -16.7265 -16.7265 -16.5959 -16.5959 -16.5819
   -16.5224 -16.5224  -2.6238   0.4509   6.6665   6.6665

          k = 0.3536 0.0000 0.0000 (  2706 PWs)   bands (ev):

   -16.8204 -16.8204 -16.8085 -16.7340 -16.6999 -16.6467 -16.5800 -16.5369
   -16.5341 -16.5341  -3.6871   3.2635   6.0386   6.0386

          k =-0.1768-0.5303 0.5303 (  2720 PWs)   bands (ev):

   -16.8469 -16.8324 -16.7658 -16.7002 -16.6812 -16.6629 -16.6164 -16.5856
   -16.5146 -16.5006  -2.2162   0.6436   4.3427   5.6774

          k = 0.0000-0.3536 0.3536 (  2742 PWs)   bands (ev):

   -16.8423 -16.8350 -16.7597 -16.7241 -16.6975 -16.6275 -16.6084 -16.5960
   -16.5112 -16.5079  -2.8230   1.4886   4.2071   6.5668

          k =-0.7071 0.0000 0.0000 (  2762 PWs)   bands (ev):

   -16.8357 -16.8357 -16.7520 -16.7520 -16.6558 -16.6558 -16.5998 -16.5998
   -16.5088 -16.5088  -0.8459  -0.8459   5.0110   5.0110

          k =-0.7071 0.3536 0.0000 (  2740 PWs)   bands (ev):

   -16.8491 -16.8491 -16.7108 -16.7108 -16.6632 -16.6632 -16.6320 -16.6320
   -16.4970 -16.4970  -0.7511  -0.7511   4.1748   4.1748

     highest occupied level (ev):     8.0585

!    total energy              =    -426.15154561 Ry
     estimated scf accuracy    <       0.00000003 Ry

     The total energy is the sum of the following terms:
     one-electron contribution =    -280.39041483 Ry
     hartree contribution      =     165.57647595 Ry
     xc contribution           =    -114.53877972 Ry
     ewald contribution        =    -196.79882702 Ry

     convergence has been achieved in   6 iterations

     Forces acting on atoms (cartesian axes, Ry/au):

     atom    1 type  1   force =     0.00000000    0.00000000    0.00000000
     atom    2 type  1   force =     0.00000000    0.00000000    0.00000000

     Total force =     0.000000     Total SCF correction =     0.000000


     Computing stress (Cartesian axis) and pressure

          total   stress  (Ry/bohr**3)                   (kbar)     P=      -10.46
  -0.00007108   0.00000000   0.00000000          -10.46        0.00        0.00
   0.00000000  -0.00007108   0.00000000            0.00      -10.46        0.00
   0.00000000   0.00000000  -0.00007108            0.00        0.00      -10.46

     Message from routine punch:
     Nothing written, as per user request (disk_io='none')

     init_run     :      0.78s CPU      0.81s WALL (       1 calls)
     electrons    :      3.02s CPU      3.14s WALL (       1 calls)
     forces       :      0.10s CPU      0.10s WALL (       1 calls)
     stress       :      0.74s CPU      0.77s WALL (       1 calls)

     Called by init_run:
     wfcinit      :      0.31s CPU      0.31s WALL (       1 calls)
     potinit      :      0.02s CPU      0.02s WALL (       1 calls)
     hinit0       :      0.39s CPU      0.40s WALL (       1 calls)

     Called by electrons:
     c_bands      :      1.97s CPU      1.98s WALL (       7 calls)
     sum_band     :      0.73s CPU      0.78s WALL (       7 calls)
     v_of_rho     :      0.02s CPU      0.02s WALL (       7 calls)
     newd         :      0.34s CPU      0.41s WALL (       7 calls)
     mix_rho      :      0.01s CPU      0.01s WALL (       7 calls)

     Called by c_bands:
     init_us_2    :      0.09s CPU      0.09s WALL (     136 calls)
     cegterg      :      1.75s CPU      1.76s WALL (      56 calls)

     Called by *egterg:
     cdiaghg      :      0.03s CPU      0.03s WALL (     184 calls)
     h_psi        :      1.75s CPU      1.76s WALL (     200 calls)
     s_psi        :      0.05s CPU      0.05s WALL (     200 calls)
     g_psi        :      0.01s CPU      0.01s WALL (     136 calls)

     Called by h_psi:
     h_psi:calbec :      0.06s CPU      0.06s WALL (     200 calls)
     vloc_psi     :      1.62s CPU      1.63s WALL (     200 calls)
     add_vuspsi   :      0.05s CPU      0.05s WALL (     200 calls)

     General routines
     calbec       :      0.12s CPU      0.12s WALL (     392 calls)
     fft          :      0.22s CPU      0.22s WALL (      37 calls)
     ffts         :      0.00s CPU      0.00s WALL (       7 calls)
     fftw         :      1.62s CPU      1.63s WALL (    5038 calls)

     Parallel routines

     PWSCF        :      4.72s CPU      4.90s WALL


   This run was terminated on:  13: 2:55   9Oct2025            

=------------------------------------------------------------------------------=
   JOB DONE.
=------------------------------------------------------------------------------=
