
     Program PWSCF v.7.4.1 starts on  9Oct2025 at 13: 1:49 

     This program is part of the open-source Quantum ESPRESSO suite
     for quantum simulation of materials; please cite
         "P. Giannozzi et al., J. Phys.:Condens. Matter 21 395502 (2009);
         "P. Giannozzi et al., J. Phys.:Condens. Matter 29 465901 (2017);
         "P. Giannozzi et al., J. Chem. Phys. 152 154105 (2020);
          URL http://www.quantum-espresso.org", 
     in publications or presentations arising from this work. More details at
     http://www.quantum-espresso.org/quote

     Parallel version (MPI), running on     1 processors

     MPI processes distributed on     1 nodes
     186 MiB available memory on the printing compute node when the environment starts

     Waiting for input...
     Reading input from standard input
Warning: card &CELL ignored
Warning: card / ignored

     Current dimensions of program PWSCF are:
     Max number of different atomic species (ntypx) = 10
     Max number of k-points (npk) =  40000
     Max angular momentum in pseudopotentials (lmaxx) =  4
     Message from routine setup:
     using ibrav=0 with symmetry is DISCOURAGED, use correct ibrav instead

     Subspace diagonalization in iterative solution of the eigenvalue problem:
     a serial algorithm will be used


     G-vector sticks info
     --------------------
     sticks:   dense  smooth     PW     G-vecs:    dense   smooth      PW
     Sum          85      85     37                  459      459     137

     Using Slab Decomposition



     bravais-lattice index     =            0
     lattice parameter (alat)  =       7.5872  a.u.
     unit-cell volume          =     308.8323 (a.u.)^3
     number of atoms/cell      =            2
     number of atomic types    =            1
     number of electrons       =        28.00
     number of Kohn-Sham states=           14
     kinetic-energy cutoff     =       5.0000  Ry
     charge density cutoff     =      20.0000  Ry
     scf convergence threshold =      1.0E-07
     mixing beta               =       0.5000
     number of iterations used =            8  plain     mixing
     Exchange-correlation=  SLA  PZ   NOGX NOGC
                           (   1   1   0   0   0   0   0)

     celldm(1)=   7.587160  celldm(2)=   0.000000  celldm(3)=   0.000000
     celldm(4)=   0.000000  celldm(5)=   0.000000  celldm(6)=   0.000000

     crystal axes: (cart. coord. in units of alat)
               a(1) = (   0.000000   0.707107   0.707107 )  
               a(2) = (   0.707107   0.000000   0.707107 )  
               a(3) = (   0.707107   0.707107   0.000000 )  

     reciprocal axes: (cart. coord. in units 2 pi/alat)
               b(1) = ( -0.707107  0.707107  0.707107 )  
               b(2) = (  0.707107 -0.707107  0.707107 )  
               b(3) = (  0.707107  0.707107 -0.707107 )  


     PseudoPot. # 1 for Ge read from file:
     /home/bond/Software/QE/qe-7.4.1/pseudo/ge_lda_v1.4.uspp.F.UPF
     MD5 check sum: bf9d52b59cc8a669818bb2b52e0c2ba0
     Pseudo is Ultrasoft + core correction, Zval = 14.0
     Generated by new atomic code, or converted to UPF format
     Using radial grid of  873 points,  6 beta functions with: 
                l(1) =   0
                l(2) =   0
                l(3) =   1
                l(4) =   1
                l(5) =   2
                l(6) =   2
     Q(r) pseudized with  8 coefficients,  rinner =    1.400   1.400   1.400
                                                       1.400   1.400

     atomic species   valence    mass     pseudopotential
     Ge               14.00    72.63000     Ge( 1.00)

     48 Sym. Ops., with inversion, found (24 have fractional translation)



   Cartesian axes

     site n.     atom                  positions (alat units)
         1        Ge     tau(   1) = (   0.0000000   0.0000000   0.0000000  )
         2        Ge     tau(   2) = (   0.3535534   0.3535534   0.3535534  )

     number of k points=     8
                       cart. coord. in units 2pi/alat
        k(    1) = (   0.0000000   0.0000000   0.0000000), wk =   0.0312500
        k(    2) = (   0.1767767   0.1767767  -0.1767767), wk =   0.2500000
        k(    3) = (  -0.3535534  -0.3535534   0.3535534), wk =   0.1250000
        k(    4) = (   0.3535534   0.0000000   0.0000000), wk =   0.1875000
        k(    5) = (  -0.1767767  -0.5303301   0.5303301), wk =   0.7500000
        k(    6) = (   0.0000000  -0.3535534   0.3535534), wk =   0.3750000
        k(    7) = (  -0.7071068   0.0000000   0.0000000), wk =   0.0937500
        k(    8) = (  -0.7071068   0.3535534   0.0000000), wk =   0.1875000

     Dense  grid:      459 G-vectors     FFT dimensions: (  12,  12,  12)

     Estimated max dynamical RAM per process >       2.22 MB

     Check: negative core charge=   -0.049000

     Initial potential from superposition of free atoms

     starting charge      27.9986, renormalised to      28.0000

     negative rho (up, down):  4.601E+00 0.000E+00
     Starting wfcs are   18 randomized atomic wfcs

     total cpu time spent up to now is        0.2 secs

     Self-consistent Calculation

     iteration #  1     ecut=     5.00 Ry     beta= 0.50
     Davidson diagonalization with overlap
     ethr =  1.00E-02,  avg # of iterations =  4.9

     negative rho (up, down):  5.030E-01 0.000E+00

     total cpu time spent up to now is        0.2 secs

     total energy              =    -278.03953783 Ry
     estimated scf accuracy    <     144.81151085 Ry

     iteration #  2     ecut=     5.00 Ry     beta= 0.50
     Davidson diagonalization with overlap
     ethr =  1.00E-02,  avg # of iterations =  5.6

     negative rho (up, down):  1.380E-01 0.000E+00

     total cpu time spent up to now is        0.2 secs

     total energy              =    -271.70077668 Ry
     estimated scf accuracy    <      22.96860108 Ry

     iteration #  3     ecut=     5.00 Ry     beta= 0.50
     Davidson diagonalization with overlap
     ethr =  1.00E-02,  avg # of iterations =  2.0

     negative rho (up, down):  4.100E-02 0.000E+00

     total cpu time spent up to now is        0.2 secs

     total energy              =    -270.42262131 Ry
     estimated scf accuracy    <       1.90601179 Ry

     iteration #  4     ecut=     5.00 Ry     beta= 0.50
     Davidson diagonalization with overlap
     ethr =  6.81E-03,  avg # of iterations =  1.9

     negative rho (up, down):  2.782E-02 0.000E+00

     total cpu time spent up to now is        0.3 secs

     total energy              =    -270.56353316 Ry
     estimated scf accuracy    <       0.00828965 Ry

     iteration #  5     ecut=     5.00 Ry     beta= 0.50
     Davidson diagonalization with overlap
     ethr =  2.96E-05,  avg # of iterations =  6.2

     negative rho (up, down):  2.646E-02 0.000E+00

     total cpu time spent up to now is        0.3 secs

     total energy              =    -270.61228798 Ry
     estimated scf accuracy    <       0.00121674 Ry

     iteration #  6     ecut=     5.00 Ry     beta= 0.50
     Davidson diagonalization with overlap
     ethr =  4.35E-06,  avg # of iterations =  2.2

     negative rho (up, down):  2.576E-02 0.000E+00

     total cpu time spent up to now is        0.3 secs

     total energy              =    -270.61213441 Ry
     estimated scf accuracy    <       0.00034519 Ry

     iteration #  7     ecut=     5.00 Ry     beta= 0.50
     Davidson diagonalization with overlap
     ethr =  1.23E-06,  avg # of iterations =  2.5

     negative rho (up, down):  2.556E-02 0.000E+00

     total cpu time spent up to now is        0.3 secs

     total energy              =    -270.61216336 Ry
     estimated scf accuracy    <       0.00001620 Ry

     iteration #  8     ecut=     5.00 Ry     beta= 0.50
     Davidson diagonalization with overlap
     ethr =  5.79E-08,  avg # of iterations =  3.0

     negative rho (up, down):  2.560E-02 0.000E+00

     total cpu time spent up to now is        0.3 secs

     total energy              =    -270.61216621 Ry
     estimated scf accuracy    <       0.00000114 Ry

     iteration #  9     ecut=     5.00 Ry     beta= 0.50
     Davidson diagonalization with overlap
     ethr =  4.08E-09,  avg # of iterations =  3.8

     negative rho (up, down):  2.558E-02 0.000E+00

     total cpu time spent up to now is        0.3 secs

     total energy              =    -270.61216647 Ry
     estimated scf accuracy    <       0.00000017 Ry

     iteration # 10     ecut=     5.00 Ry     beta= 0.50
     Davidson diagonalization with overlap
     ethr =  6.03E-10,  avg # of iterations =  4.1

     negative rho (up, down):  2.560E-02 0.000E+00

     total cpu time spent up to now is        0.4 secs

     End of self-consistent calculation

          k = 0.0000 0.0000 0.0000 (    59 PWs)   bands (ev):

   -40.5556 -38.7122 -15.0226 -15.0226 -15.0226 -11.8506 -11.8506 -11.8506
    14.1491  15.2579  15.2579  17.0649  17.0649  17.0649

          k = 0.1768 0.1768-0.1768 (    61 PWs)   bands (ev):

   -41.2632 -38.2775 -15.2217 -15.2217 -14.3920 -13.2055 -13.2055 -11.6414
    14.9859  15.1284  15.1284  17.2182  17.5306  17.5306

          k =-0.3536-0.3536 0.3536 (    52 PWs)   bands (ev):

   -40.0178 -35.7094 -13.1337 -12.1996 -12.1996 -10.8578 -10.8578  -5.5874
    15.8438  16.6930  16.6930  17.0578  17.0580  17.0580

          k = 0.3536 0.0000 0.0000 (    60 PWs)   bands (ev):

   -40.5854 -38.6867 -15.1399 -15.1399 -14.7054 -13.6565 -11.3277 -11.3277
    14.1062  15.4774  16.2862  17.1839  17.1839  17.4362

          k =-0.1768-0.5303 0.5303 (    57 PWs)   bands (ev):

   -39.3932 -38.1469 -14.0038 -13.2681 -12.1826 -11.5673 -10.6080 -10.5713
    14.4771  15.3095  15.6063  17.8936  17.9550  18.7149

          k = 0.0000-0.3536 0.3536 (    59 PWs)   bands (ev):

   -40.0917 -38.3301 -14.6081 -13.8287 -12.9558 -12.7910 -11.9710 -11.7887
    14.8722  15.3664  15.4306  16.5695  17.5733  17.7162

          k =-0.7071 0.0000 0.0000 (    64 PWs)   bands (ev):

   -39.9550 -39.9550 -15.6927 -15.6927 -13.3006 -13.3006 -11.7031 -11.7031
    14.5991  14.5991  15.2817  15.2817  16.9053  16.9053

          k =-0.7071 0.3536 0.0000 (    56 PWs)   bands (ev):

   -38.8360 -38.8360 -12.8158 -12.8158 -11.9885 -11.9885 -10.8889 -10.8889
    14.5929  14.5929  17.4136  17.4136  19.0590  19.0590

     highest occupied level (ev):    19.0590

!    total energy              =    -270.61216652 Ry
     estimated scf accuracy    <       0.00000001 Ry

     The total energy is the sum of the following terms:
     one-electron contribution =     -15.12535178 Ry
     hartree contribution      =      21.53467677 Ry
     xc contribution           =     -80.22266450 Ry
     ewald contribution        =    -196.79882701 Ry

     convergence has been achieved in  10 iterations

     negative rho (up, down):  2.560E-02 0.000E+00

     Forces acting on atoms (cartesian axes, Ry/au):

     atom    1 type  1   force =     0.00000000    0.00000000    0.00000000
     atom    2 type  1   force =    -0.00000000   -0.00000000   -0.00000000

     Total force =     0.000000     Total SCF correction =     0.000000


     Computing stress (Cartesian axis) and pressure


     negative rho (up, down):  2.560E-02 0.000E+00
          total   stress  (Ry/bohr**3)                   (kbar)     P=   -13811.73
  -0.09389020   0.00000000   0.00000000       -13811.73        0.00        0.00
   0.00000000  -0.09389020   0.00000000            0.00   -13811.73        0.00
   0.00000000   0.00000000  -0.09389020            0.00        0.00   -13811.73

     Message from routine punch:
     Nothing written, as per user request (disk_io='none')

     init_run     :      0.10s CPU      0.10s WALL (       1 calls)
     electrons    :      0.15s CPU      0.17s WALL (       1 calls)
     forces       :      0.00s CPU      0.00s WALL (       1 calls)
     stress       :      0.02s CPU      0.02s WALL (       1 calls)

     Called by init_run:
     wfcinit      :      0.02s CPU      0.02s WALL (       1 calls)
     potinit      :      0.00s CPU      0.00s WALL (       1 calls)
     hinit0       :      0.08s CPU      0.08s WALL (       1 calls)

     Called by electrons:
     c_bands      :      0.12s CPU      0.13s WALL (      10 calls)
     sum_band     :      0.02s CPU      0.02s WALL (      10 calls)
     v_of_rho     :      0.00s CPU      0.00s WALL (      11 calls)
     newd         :      0.01s CPU      0.01s WALL (      11 calls)
     mix_rho      :      0.00s CPU      0.00s WALL (      10 calls)

     Called by c_bands:
     init_us_2    :      0.00s CPU      0.00s WALL (     184 calls)
     cegterg      :      0.11s CPU      0.12s WALL (      80 calls)

     Called by *egterg:
     cdiaghg      :      0.05s CPU      0.06s WALL (     370 calls)
     h_psi        :      0.06s CPU      0.06s WALL (     378 calls)
     s_psi        :      0.00s CPU      0.00s WALL (     378 calls)
     g_psi        :      0.00s CPU      0.00s WALL (     290 calls)

     Called by h_psi:
     h_psi:calbec :      0.00s CPU      0.00s WALL (     378 calls)
     vloc_psi     :      0.05s CPU      0.05s WALL (     378 calls)
     add_vuspsi   :      0.00s CPU      0.00s WALL (     378 calls)

     General routines
     calbec       :      0.00s CPU      0.00s WALL (     594 calls)
     fft          :      0.02s CPU      0.02s WALL (      52 calls)
     ffts         :      0.00s CPU      0.00s WALL (      10 calls)
     fftw         :      0.04s CPU      0.04s WALL (    7756 calls)

     Parallel routines

     PWSCF        :      0.35s CPU      0.38s WALL


   This run was terminated on:  13: 1:50   9Oct2025            

=------------------------------------------------------------------------------=
   JOB DONE.
=------------------------------------------------------------------------------=
