Header of the LAMMPS data file 

9 atoms 
1 atom types

0.0 8.745191935923772  xlo xhi
0.0 7.573558377480801  ylo yhi
0.0 16.0  zlo zhi

Masses 

1  26.9815385

Atoms # atomic 

1 1 0.00000 0.00000 8.00000 
2 1 2.91506 0.00000 8.00000 
3 1 5.83013 0.00000 8.00000 
4 1 1.45753 2.52452 8.00000 
5 1 4.37260 2.52452 8.00000 
6 1 7.28766 2.52452 8.00000 
7 1 2.91506 5.04904 8.00000 
8 1 5.83013 5.04904 8.00000 
9 1 8.74519 5.04904 8.00000 
