
     Program PWSCF v.7.4.1 starts on 21Oct2025 at  1: 0:56 

     This program is part of the open-source Quantum ESPRESSO suite
     for quantum simulation of materials; please cite
         "P. Giannozzi et al., J. Phys.:Condens. Matter 21 395502 (2009);
         "P. Giannozzi et al., J. Phys.:Condens. Matter 29 465901 (2017);
         "P. Giannozzi et al., J. Chem. Phys. 152 154105 (2020);
          URL http://www.quantum-espresso.org", 
     in publications or presentations arising from this work. More details at
     http://www.quantum-espresso.org/quote

     Parallel version (MPI), running on     2 processors

     MPI processes distributed on     1 nodes
     503 MiB available memory on the printing compute node when the environment starts

     Waiting for input...
     Reading input from standard input
Warning: card &CELL ignored
Warning: card / ignored

     Current dimensions of program PWSCF are:
     Max number of different atomic species (ntypx) = 10
     Max number of k-points (npk) =  40000
     Max angular momentum in pseudopotentials (lmaxx) =  4
     file Fe.pbe-nd-rrkjus.UPF: wavefunction(s)  4S renormalized
     Message from routine setup:
     using ibrav=0 with symmetry is DISCOURAGED, use correct ibrav instead

     R & G space division:  proc/nbgrp/npool/nimage =       2
     Subspace diagonalization in iterative solution of the eigenvalue problem:
     a serial algorithm will be used


     Parallelization info
     --------------------
     sticks:   dense  smooth     PW     G-vecs:    dense   smooth      PW
     Min         423     174     54                17537     4470     788
     Max         424     175     55                17546     4473     793
     Sum         847     349    109                35083     8943    1581

     Using Slab Decomposition



     bravais-lattice index     =            0
     lattice parameter (alat)  =       6.4251  a.u.
     unit-cell volume          =     398.9916 (a.u.)^3
     number of atoms/cell      =            2
     number of atomic types    =            1
     number of electrons       =        16.00
     number of Kohn-Sham states=           12
     kinetic-energy cutoff     =      30.0000  Ry
     charge density cutoff     =     300.0000  Ry
     scf convergence threshold =      1.0E-07
     mixing beta               =       0.5000
     number of iterations used =            8  plain     mixing
     Exchange-correlation=  SLA  PW   PBE  PBE
                           (   1   4   3   4   0   0   0)

     celldm(1)=   6.425069  celldm(2)=   0.000000  celldm(3)=   0.000000
     celldm(4)=   0.000000  celldm(5)=   0.000000  celldm(6)=   0.000000

     crystal axes: (cart. coord. in units of alat)
               a(1) = (   1.000000   0.000000   0.000000 )  
               a(2) = (  -0.500000   0.866025   0.000000 )  
               a(3) = (   0.000000   0.000000   1.737000 )  

     reciprocal axes: (cart. coord. in units 2 pi/alat)
               b(1) = (  1.000000  0.577350 -0.000000 )  
               b(2) = (  0.000000  1.154701  0.000000 )  
               b(3) = (  0.000000 -0.000000  0.575705 )  


     PseudoPot. # 1 for Fe read from file:
     /home/bond/Software/QE/qe-7.4.1/pseudo/Fe.pbe-nd-rrkjus.UPF
     MD5 check sum: 398036227a04b607635f6f5e8dfd8242
     Pseudo is Ultrasoft + core correction, Zval =  8.0
     Generated by new atomic code, or converted to UPF format
     Using radial grid of  957 points,  6 beta functions with: 
                l(1) =   0
                l(2) =   0
                l(3) =   1
                l(4) =   1
                l(5) =   2
                l(6) =   2
     Q(r) pseudized with 0 coefficients 


     atomic species   valence    mass     pseudopotential
     Fe                8.00    55.84500     Fe( 1.00)

     Starting magnetic structure 
     atomic species   magnetization
     Fe              0.700

     24 Sym. Ops., with inversion, found (12 have fractional translation)



   Cartesian axes

     site n.     atom                  positions (alat units)
         1        Fe     tau(   1) = (   0.0000000   0.0000000   0.0000000  )
         2        Fe     tau(   2) = (   0.0000000   0.5773500   0.8685000  )

     number of k points=    96  Methfessel-Paxton smearing, width (Ry)=  0.0200
                       cart. coord. in units 2pi/alat
        k(    1) = (   0.0000000   0.0000000   0.0000000), wk =   0.0007289
        k(    2) = (   0.0000000   0.0000000   0.0822436), wk =   0.0014577
        k(    3) = (   0.0000000   0.0000000   0.1644872), wk =   0.0014577
        k(    4) = (   0.0000000   0.0000000   0.2467308), wk =   0.0014577
        k(    5) = (   0.0000000   0.0824786   0.0000000), wk =   0.0043732
        k(    6) = (   0.0000000   0.0824786   0.0822436), wk =   0.0087464
        k(    7) = (   0.0000000   0.0824786   0.1644872), wk =   0.0087464
        k(    8) = (   0.0000000   0.0824786   0.2467308), wk =   0.0087464
        k(    9) = (   0.0000000   0.1649572   0.0000000), wk =   0.0043732
        k(   10) = (   0.0000000   0.1649572   0.0822436), wk =   0.0087464
        k(   11) = (   0.0000000   0.1649572   0.1644872), wk =   0.0087464
        k(   12) = (   0.0000000   0.1649572   0.2467308), wk =   0.0087464
        k(   13) = (   0.0000000   0.2474358   0.0000000), wk =   0.0043732
        k(   14) = (   0.0000000   0.2474358   0.0822436), wk =   0.0087464
        k(   15) = (   0.0000000   0.2474358   0.1644872), wk =   0.0087464
        k(   16) = (   0.0000000   0.2474358   0.2467308), wk =   0.0087464
        k(   17) = (   0.0000000   0.3299144   0.0000000), wk =   0.0043732
        k(   18) = (   0.0000000   0.3299144   0.0822436), wk =   0.0087464
        k(   19) = (   0.0000000   0.3299144   0.1644872), wk =   0.0087464
        k(   20) = (   0.0000000   0.3299144   0.2467308), wk =   0.0087464
        k(   21) = (   0.0000000   0.4123930   0.0000000), wk =   0.0043732
        k(   22) = (   0.0000000   0.4123930   0.0822436), wk =   0.0087464
        k(   23) = (   0.0000000   0.4123930   0.1644872), wk =   0.0087464
        k(   24) = (   0.0000000   0.4123930   0.2467308), wk =   0.0087464
        k(   25) = (   0.0000000   0.4948717   0.0000000), wk =   0.0043732
        k(   26) = (   0.0000000   0.4948717   0.0822436), wk =   0.0087464
        k(   27) = (   0.0000000   0.4948717   0.1644872), wk =   0.0087464
        k(   28) = (   0.0000000   0.4948717   0.2467308), wk =   0.0087464
        k(   29) = (   0.0000000  -0.5773503   0.0000000), wk =   0.0021866
        k(   30) = (   0.0000000  -0.5773503   0.0822436), wk =   0.0043732
        k(   31) = (   0.0000000  -0.5773503   0.1644872), wk =   0.0043732
        k(   32) = (   0.0000000  -0.5773503   0.2467308), wk =   0.0043732
        k(   33) = (   0.0714286   0.1237179   0.0000000), wk =   0.0043732
        k(   34) = (   0.0714286   0.1237179   0.0822436), wk =   0.0087464
        k(   35) = (   0.0714286   0.1237179   0.1644872), wk =   0.0087464
        k(   36) = (   0.0714286   0.1237179   0.2467308), wk =   0.0087464
        k(   37) = (   0.0714286   0.2061965   0.0000000), wk =   0.0087464
        k(   38) = (   0.0714286   0.2061965   0.0822436), wk =   0.0174927
        k(   39) = (   0.0714286   0.2061965   0.1644872), wk =   0.0174927
        k(   40) = (   0.0714286   0.2061965   0.2467308), wk =   0.0174927
        k(   41) = (   0.0714286   0.2886751   0.0000000), wk =   0.0087464
        k(   42) = (   0.0714286   0.2886751   0.0822436), wk =   0.0174927
        k(   43) = (   0.0714286   0.2886751   0.1644872), wk =   0.0174927
        k(   44) = (   0.0714286   0.2886751   0.2467308), wk =   0.0174927
        k(   45) = (   0.0714286   0.3711537   0.0000000), wk =   0.0087464
        k(   46) = (   0.0714286   0.3711537   0.0822436), wk =   0.0174927
        k(   47) = (   0.0714286   0.3711537   0.1644872), wk =   0.0174927
        k(   48) = (   0.0714286   0.3711537   0.2467308), wk =   0.0174927
        k(   49) = (   0.0714286   0.4536324   0.0000000), wk =   0.0087464
        k(   50) = (   0.0714286   0.4536324   0.0822436), wk =   0.0174927
        k(   51) = (   0.0714286   0.4536324   0.1644872), wk =   0.0174927
        k(   52) = (   0.0714286   0.4536324   0.2467308), wk =   0.0174927
        k(   53) = (   0.0714286   0.5361110   0.0000000), wk =   0.0087464
        k(   54) = (   0.0714286   0.5361110   0.0822436), wk =   0.0174927
        k(   55) = (   0.0714286   0.5361110   0.1644872), wk =   0.0174927
        k(   56) = (   0.0714286   0.5361110   0.2467308), wk =   0.0174927
        k(   57) = (   0.1428571   0.2474358   0.0000000), wk =   0.0043732
        k(   58) = (   0.1428571   0.2474358   0.0822436), wk =   0.0087464
        k(   59) = (   0.1428571   0.2474358   0.1644872), wk =   0.0087464
        k(   60) = (   0.1428571   0.2474358   0.2467308), wk =   0.0087464
        k(   61) = (   0.1428571   0.3299144   0.0000000), wk =   0.0087464
        k(   62) = (   0.1428571   0.3299144   0.0822436), wk =   0.0174927
        k(   63) = (   0.1428571   0.3299144   0.1644872), wk =   0.0174927
        k(   64) = (   0.1428571   0.3299144   0.2467308), wk =   0.0174927
        k(   65) = (   0.1428571   0.4123930   0.0000000), wk =   0.0087464
        k(   66) = (   0.1428571   0.4123930   0.0822436), wk =   0.0174927
        k(   67) = (   0.1428571   0.4123930   0.1644872), wk =   0.0174927
        k(   68) = (   0.1428571   0.4123930   0.2467308), wk =   0.0174927
        k(   69) = (   0.1428571   0.4948717   0.0000000), wk =   0.0087464
        k(   70) = (   0.1428571   0.4948717   0.0822436), wk =   0.0174927
        k(   71) = (   0.1428571   0.4948717   0.1644872), wk =   0.0174927
        k(   72) = (   0.1428571   0.4948717   0.2467308), wk =   0.0174927
        k(   73) = (   0.1428571   0.5773503   0.0000000), wk =   0.0043732
        k(   74) = (   0.1428571   0.5773503   0.0822436), wk =   0.0087464
        k(   75) = (   0.1428571   0.5773503   0.1644872), wk =   0.0087464
        k(   76) = (   0.1428571   0.5773503   0.2467308), wk =   0.0087464
        k(   77) = (   0.2142857   0.3711537   0.0000000), wk =   0.0043732
        k(   78) = (   0.2142857   0.3711537   0.0822436), wk =   0.0087464
        k(   79) = (   0.2142857   0.3711537   0.1644872), wk =   0.0087464
        k(   80) = (   0.2142857   0.3711537   0.2467308), wk =   0.0087464
        k(   81) = (   0.2142857   0.4536324   0.0000000), wk =   0.0087464
        k(   82) = (   0.2142857   0.4536324   0.0822436), wk =   0.0174927
        k(   83) = (   0.2142857   0.4536324   0.1644872), wk =   0.0174927
        k(   84) = (   0.2142857   0.4536324   0.2467308), wk =   0.0174927
        k(   85) = (   0.2142857   0.5361110   0.0000000), wk =   0.0087464
        k(   86) = (   0.2142857   0.5361110   0.0822436), wk =   0.0174927
        k(   87) = (   0.2142857   0.5361110   0.1644872), wk =   0.0174927
        k(   88) = (   0.2142857   0.5361110   0.2467308), wk =   0.0174927
        k(   89) = (   0.2857143   0.4948717   0.0000000), wk =   0.0043732
        k(   90) = (   0.2857143   0.4948717   0.0822436), wk =   0.0087464
        k(   91) = (   0.2857143   0.4948717   0.1644872), wk =   0.0087464
        k(   92) = (   0.2857143   0.4948717   0.2467308), wk =   0.0087464
        k(   93) = (   0.2857143   0.5773503   0.0000000), wk =   0.0043732
        k(   94) = (   0.2857143   0.5773503   0.0822436), wk =   0.0087464
        k(   95) = (   0.2857143   0.5773503   0.1644872), wk =   0.0087464
        k(   96) = (   0.2857143   0.5773503   0.2467308), wk =   0.0087464

     Dense  grid:    35083 G-vectors     FFT dimensions: (  36,  36,  64)

     Smooth grid:     8943 G-vectors     FFT dimensions: (  24,  24,  40)

     Estimated max dynamical RAM per process >      92.40 MB

     Estimated total dynamical RAM >     184.80 MB

     Check: negative core charge=   -0.000031
     Generating pointlists ...
     new r_m :   0.4125 (alat units)  2.6503 (a.u.) for type    1

     Initial potential from superposition of free atoms

     starting charge      15.9987, renormalised to      16.0000
     Starting wfcs are   12 randomized atomic wfcs

     total cpu time spent up to now is        2.7 secs

     Self-consistent Calculation

     iteration #  1     ecut=    30.00 Ry     beta= 0.50
     Davidson diagonalization with overlap
     ethr =  1.00E-02,  avg # of iterations =  3.1

     total cpu time spent up to now is        6.9 secs

     total energy              =    -110.95498453 Ry
     estimated scf accuracy    <       0.64778964 Ry

     total magnetization       =     8.00 Bohr mag/cell
     absolute magnetization    =     8.09 Bohr mag/cell

     iteration #  2     ecut=    30.00 Ry     beta= 0.50
     Davidson diagonalization with overlap
     ethr =  4.05E-03,  avg # of iterations =  2.7

     total cpu time spent up to now is       12.0 secs

     total energy              =    -111.15731283 Ry
     estimated scf accuracy    <       0.45180144 Ry

     total magnetization       =     6.34 Bohr mag/cell
     absolute magnetization    =     6.36 Bohr mag/cell

     iteration #  3     ecut=    30.00 Ry     beta= 0.50
     Davidson diagonalization with overlap
     ethr =  2.82E-03,  avg # of iterations =  1.4

     total cpu time spent up to now is       15.5 secs

     total energy              =    -111.23711972 Ry
     estimated scf accuracy    <       0.00761515 Ry

     total magnetization       =     7.09 Bohr mag/cell
     absolute magnetization    =     7.19 Bohr mag/cell

     iteration #  4     ecut=    30.00 Ry     beta= 0.50
     Davidson diagonalization with overlap
     ethr =  4.76E-05,  avg # of iterations =  5.5

     total cpu time spent up to now is       21.3 secs

     total energy              =    -111.24683294 Ry
     estimated scf accuracy    <       0.00532613 Ry

     total magnetization       =     6.88 Bohr mag/cell
     absolute magnetization    =     7.18 Bohr mag/cell

     iteration #  5     ecut=    30.00 Ry     beta= 0.50
     Davidson diagonalization with overlap
     ethr =  3.33E-05,  avg # of iterations =  3.1

     total cpu time spent up to now is       26.1 secs

     total energy              =    -111.25451019 Ry
     estimated scf accuracy    <       0.01361897 Ry

     total magnetization       =     6.39 Bohr mag/cell
     absolute magnetization    =     6.91 Bohr mag/cell

     iteration #  6     ecut=    30.00 Ry     beta= 0.50
     Davidson diagonalization with overlap
     ethr =  3.33E-05,  avg # of iterations =  1.0

     total cpu time spent up to now is       29.5 secs

     total energy              =    -111.24679111 Ry
     estimated scf accuracy    <       0.01152777 Ry

     total magnetization       =     6.41 Bohr mag/cell
     absolute magnetization    =     6.93 Bohr mag/cell

     iteration #  7     ecut=    30.00 Ry     beta= 0.50
     Davidson diagonalization with overlap
     ethr =  3.33E-05,  avg # of iterations =  4.4

     total cpu time spent up to now is       34.8 secs

     total energy              =    -111.24975694 Ry
     estimated scf accuracy    <       0.02602283 Ry

     total magnetization       =     6.67 Bohr mag/cell
     absolute magnetization    =     7.27 Bohr mag/cell

     iteration #  8     ecut=    30.00 Ry     beta= 0.50
     Davidson diagonalization with overlap
     ethr =  3.33E-05,  avg # of iterations =  3.3

     total cpu time spent up to now is       39.0 secs

     total energy              =    -111.25307771 Ry
     estimated scf accuracy    <       0.00028844 Ry

     total magnetization       =     6.53 Bohr mag/cell
     absolute magnetization    =     7.07 Bohr mag/cell

     iteration #  9     ecut=    30.00 Ry     beta= 0.50
     Davidson diagonalization with overlap
     ethr =  1.80E-06,  avg # of iterations =  2.5

     total cpu time spent up to now is       42.7 secs

     total energy              =    -111.25318286 Ry
     estimated scf accuracy    <       0.00015092 Ry

     total magnetization       =     6.52 Bohr mag/cell
     absolute magnetization    =     7.07 Bohr mag/cell

     iteration # 10     ecut=    30.00 Ry     beta= 0.50
     Davidson diagonalization with overlap
     ethr =  9.43E-07,  avg # of iterations =  2.8

     total cpu time spent up to now is       46.5 secs

     total energy              =    -111.25315364 Ry
     estimated scf accuracy    <       0.00049164 Ry

     total magnetization       =     6.53 Bohr mag/cell
     absolute magnetization    =     7.09 Bohr mag/cell

     iteration # 11     ecut=    30.00 Ry     beta= 0.50
     Davidson diagonalization with overlap
     ethr =  9.43E-07,  avg # of iterations =  2.0

     total cpu time spent up to now is       50.1 secs

     total energy              =    -111.25317991 Ry
     estimated scf accuracy    <       0.00008853 Ry

     total magnetization       =     6.52 Bohr mag/cell
     absolute magnetization    =     7.07 Bohr mag/cell

     iteration # 12     ecut=    30.00 Ry     beta= 0.50
     Davidson diagonalization with overlap
     ethr =  5.53E-07,  avg # of iterations =  1.4

     total cpu time spent up to now is       53.7 secs

     total energy              =    -111.25319047 Ry
     estimated scf accuracy    <       0.00004493 Ry

     total magnetization       =     6.51 Bohr mag/cell
     absolute magnetization    =     7.07 Bohr mag/cell

     iteration # 13     ecut=    30.00 Ry     beta= 0.50
     Davidson diagonalization with overlap
     ethr =  2.81E-07,  avg # of iterations =  1.3

     total cpu time spent up to now is       57.6 secs

     total energy              =    -111.25319047 Ry
     estimated scf accuracy    <       0.00003636 Ry

     total magnetization       =     6.51 Bohr mag/cell
     absolute magnetization    =     7.07 Bohr mag/cell

     iteration # 14     ecut=    30.00 Ry     beta= 0.50
     Davidson diagonalization with overlap
     ethr =  2.27E-07,  avg # of iterations =  1.3

     total cpu time spent up to now is       62.1 secs

     total energy              =    -111.25319175 Ry
     estimated scf accuracy    <       0.00001797 Ry

     total magnetization       =     6.51 Bohr mag/cell
     absolute magnetization    =     7.06 Bohr mag/cell

     iteration # 15     ecut=    30.00 Ry     beta= 0.50
     Davidson diagonalization with overlap
     ethr =  1.12E-07,  avg # of iterations =  1.6

     total cpu time spent up to now is       65.6 secs

     total energy              =    -111.25319300 Ry
     estimated scf accuracy    <       0.00000683 Ry

     total magnetization       =     6.51 Bohr mag/cell
     absolute magnetization    =     7.06 Bohr mag/cell

     iteration # 16     ecut=    30.00 Ry     beta= 0.50
     Davidson diagonalization with overlap
     ethr =  4.27E-08,  avg # of iterations =  1.6

     total cpu time spent up to now is       69.5 secs

     total energy              =    -111.25319351 Ry
     estimated scf accuracy    <       0.00000369 Ry

     total magnetization       =     6.51 Bohr mag/cell
     absolute magnetization    =     7.06 Bohr mag/cell

     iteration # 17     ecut=    30.00 Ry     beta= 0.50
     Davidson diagonalization with overlap
     ethr =  2.31E-08,  avg # of iterations =  1.8

     total cpu time spent up to now is       72.8 secs

     total energy              =    -111.25319701 Ry
     estimated scf accuracy    <       0.00000226 Ry

     total magnetization       =     6.51 Bohr mag/cell
     absolute magnetization    =     7.06 Bohr mag/cell

     iteration # 18     ecut=    30.00 Ry     beta= 0.50
     Davidson diagonalization with overlap
     ethr =  1.41E-08,  avg # of iterations =  2.9

     Magnetic moment per site  (integrated on atomic sphere of radius R)
     atom   1 (R=0.413)  charge=  7.0618  magn=  3.3760
     atom   2 (R=0.413)  charge=  7.0618  magn=  3.3760

     total cpu time spent up to now is       76.6 secs

     End of self-consistent calculation

     Number of k-points >= 100: set verbosity='high' to print the bands.

     the Fermi energy is     3.5019 ev

!    total energy              =    -111.25319772 Ry
     estimated scf accuracy    <       0.00000004 Ry
     smearing contrib. (-TS)   =      -0.00015571 Ry
     internal energy E=F+TS    =    -111.25304201 Ry

     The total energy is F=E-TS. E is the sum of the following terms:
     one-electron contribution =     -19.90047723 Ry
     hartree contribution      =      24.34863067 Ry
     xc contribution           =     -52.46724380 Ry
     ewald contribution        =     -63.23395165 Ry

     total magnetization       =     6.51 Bohr mag/cell
     absolute magnetization    =     7.05 Bohr mag/cell

     convergence has been achieved in  18 iterations

     Forces acting on atoms (cartesian axes, Ry/au):

     atom    1 type  1   force =     0.00000000   -0.00000000    0.00000000
     atom    2 type  1   force =     0.00000000    0.00000000    0.00000000

     Total force =     0.000000     Total SCF correction =     0.000000


     Computing stress (Cartesian axis) and pressure

          total   stress  (Ry/bohr**3)                   (kbar)     P=     -181.30
  -0.00128610  -0.00000000   0.00000000         -189.19       -0.00        0.00
  -0.00000000  -0.00128610   0.00000000           -0.00     -189.19        0.00
   0.00000000   0.00000000  -0.00112518            0.00        0.00     -165.52

     Message from routine punch:
     Nothing written, as per user request (disk_io='none')

     init_run     :      2.30s CPU      2.49s WALL (       1 calls)
     electrons    :     68.45s CPU     73.89s WALL (       1 calls)
     forces       :      0.37s CPU      0.37s WALL (       1 calls)
     stress       :      1.81s CPU      1.86s WALL (       1 calls)

     Called by init_run:
     wfcinit      :      1.36s CPU      1.50s WALL (       1 calls)
     potinit      :      0.29s CPU      0.31s WALL (       1 calls)
     hinit0       :      0.40s CPU      0.43s WALL (       1 calls)

     Called by electrons:
     c_bands      :     54.37s CPU     58.44s WALL (      18 calls)
     sum_band     :     11.35s CPU     12.29s WALL (      18 calls)
     v_of_rho     :      1.17s CPU      1.29s WALL (      19 calls)
     newd         :      1.56s CPU      1.88s WALL (      19 calls)
     mix_rho      :      0.10s CPU      0.12s WALL (      18 calls)

     Called by c_bands:
     init_us_2    :      1.67s CPU      1.79s WALL (    7488 calls)
     cegterg      :     49.91s CPU     53.64s WALL (    3456 calls)

     Called by *egterg:
     cdiaghg      :      2.41s CPU      2.64s WALL (   11868 calls)
     h_psi        :     43.50s CPU     46.66s WALL (   12060 calls)
     s_psi        :      0.78s CPU      0.84s WALL (   12060 calls)
     g_psi        :      0.18s CPU      0.19s WALL (    8412 calls)

     Called by h_psi:
     h_psi:calbec :      1.77s CPU      1.92s WALL (   12060 calls)
     vloc_psi     :     40.51s CPU     43.39s WALL (   12060 calls)
     add_vuspsi   :      0.93s CPU      1.04s WALL (   12060 calls)

     General routines
     calbec       :      2.73s CPU      2.92s WALL (   18780 calls)
     fft          :      0.66s CPU      0.72s WALL (     513 calls)
     ffts         :      0.18s CPU      0.19s WALL (      74 calls)
     fftw         :     40.10s CPU     42.98s WALL (  248942 calls)
     interpolate  :      0.21s CPU      0.22s WALL (      38 calls)

     Parallel routines

     PWSCF        :   1m13.11s CPU   1m18.84s WALL


   This run was terminated on:   1: 2:15  21Oct2025            

=------------------------------------------------------------------------------=
   JOB DONE.
=------------------------------------------------------------------------------=
