
     Program PWSCF v.7.4.1 starts on  7Oct2025 at 23:55:34 

     This program is part of the open-source Quantum ESPRESSO suite
     for quantum simulation of materials; please cite
         "P. Giannozzi et al., J. Phys.:Condens. Matter 21 395502 (2009);
         "P. Giannozzi et al., J. Phys.:Condens. Matter 29 465901 (2017);
         "P. Giannozzi et al., J. Chem. Phys. 152 154105 (2020);
          URL http://www.quantum-espresso.org", 
     in publications or presentations arising from this work. More details at
     http://www.quantum-espresso.org/quote

     Parallel version (MPI), running on     1 processors

     MPI processes distributed on     1 nodes
     220 MiB available memory on the printing compute node when the environment starts

     Waiting for input...
     Reading input from standard input
Warning: card &CELL ignored
Warning: card / ignored

     Current dimensions of program PWSCF are:
     Max number of different atomic species (ntypx) = 10
     Max number of k-points (npk) =  40000
     Max angular momentum in pseudopotentials (lmaxx) =  4
     Message from routine setup:
     using ibrav=0 with symmetry is DISCOURAGED, use correct ibrav instead

     Subspace diagonalization in iterative solution of the eigenvalue problem:
     a serial algorithm will be used


     G-vector sticks info
     --------------------
     sticks:   dense  smooth     PW     G-vecs:    dense   smooth      PW
     Sum         475     475    151                 6855     6855    1243

     Using Slab Decomposition



     bravais-lattice index     =            0
     lattice parameter (alat)  =       7.5604  a.u.
     unit-cell volume          =     305.5804 (a.u.)^3
     number of atoms/cell      =            2
     number of atomic types    =            1
     number of electrons       =        28.00
     number of Kohn-Sham states=           14
     kinetic-energy cutoff     =      30.0000  Ry
     charge density cutoff     =     120.0000  Ry
     scf convergence threshold =      1.0E-07
     mixing beta               =       0.5000
     number of iterations used =            8  plain     mixing
     Exchange-correlation=  SLA  PZ   NOGX NOGC
                           (   1   1   0   0   0   0   0)

     celldm(1)=   7.560435  celldm(2)=   0.000000  celldm(3)=   0.000000
     celldm(4)=   0.000000  celldm(5)=   0.000000  celldm(6)=   0.000000

     crystal axes: (cart. coord. in units of alat)
               a(1) = (   0.000000   0.707107   0.707107 )  
               a(2) = (   0.707107   0.000000   0.707107 )  
               a(3) = (   0.707107   0.707107   0.000000 )  

     reciprocal axes: (cart. coord. in units 2 pi/alat)
               b(1) = ( -0.707107  0.707107  0.707107 )  
               b(2) = (  0.707107 -0.707107  0.707107 )  
               b(3) = (  0.707107  0.707107 -0.707107 )  


     PseudoPot. # 1 for Ge read from file:
     /home/bond/Software/QE/qe-7.4.1/pseudo/ge_lda_v1.4.uspp.F.UPF
     MD5 check sum: bf9d52b59cc8a669818bb2b52e0c2ba0
     Pseudo is Ultrasoft + core correction, Zval = 14.0
     Generated by new atomic code, or converted to UPF format
     Using radial grid of  873 points,  6 beta functions with: 
                l(1) =   0
                l(2) =   0
                l(3) =   1
                l(4) =   1
                l(5) =   2
                l(6) =   2
     Q(r) pseudized with  8 coefficients,  rinner =    1.400   1.400   1.400
                                                       1.400   1.400

     atomic species   valence    mass     pseudopotential
     Ge               14.00    72.63000     Ge( 1.00)

     48 Sym. Ops., with inversion, found (24 have fractional translation)



   Cartesian axes

     site n.     atom                  positions (alat units)
         1        Ge     tau(   1) = (   0.0000000   0.0000000   0.0000000  )
         2        Ge     tau(   2) = (   0.3535534   0.3535534   0.3535534  )

     number of k points=    10
                       cart. coord. in units 2pi/alat
        k(    1) = (   0.0000000   0.0000000   0.0000000), wk =   0.0160000
        k(    2) = (   0.1414214   0.1414214  -0.1414214), wk =   0.1280000
        k(    3) = (   0.2828427   0.2828427  -0.2828427), wk =   0.1280000
        k(    4) = (   0.2828427   0.0000000   0.0000000), wk =   0.0960000
        k(    5) = (   0.4242641   0.1414214  -0.1414214), wk =   0.3840000
        k(    6) = (  -0.1414214  -0.4242641   0.4242641), wk =   0.3840000
        k(    7) = (   0.0000000  -0.2828427   0.2828427), wk =   0.1920000
        k(    8) = (   0.5656854   0.0000000   0.0000000), wk =   0.0960000
        k(    9) = (   0.0000000  -0.5656854   0.5656854), wk =   0.1920000
        k(   10) = (  -0.1414214  -0.4242641   0.7071068), wk =   0.3840000

     Dense  grid:     6855 G-vectors     FFT dimensions: (  32,  32,  32)

     Estimated max dynamical RAM per process >      29.46 MB

     Check: negative core charge=   -0.000126

     Initial potential from superposition of free atoms

     starting charge      27.9986, renormalised to      28.0000
     Starting wfcs are   18 randomized atomic wfcs

     total cpu time spent up to now is        0.8 secs

     Self-consistent Calculation

     iteration #  1     ecut=    30.00 Ry     beta= 0.50
     Davidson diagonalization with overlap
     ethr =  1.00E-02,  avg # of iterations =  1.6

     Threshold (ethr) on eigenvalues was too large:
     Diagonalizing with lowered threshold

     Davidson diagonalization with overlap
     ethr =  1.27E-04,  avg # of iterations =  2.0

     total cpu time spent up to now is        1.3 secs

     total energy              =    -426.13216246 Ry
     estimated scf accuracy    <       0.03790811 Ry

     iteration #  2     ecut=    30.00 Ry     beta= 0.50
     Davidson diagonalization with overlap
     ethr =  1.35E-04,  avg # of iterations =  1.0

     total cpu time spent up to now is        1.5 secs

     total energy              =    -426.13088878 Ry
     estimated scf accuracy    <       0.00649281 Ry

     iteration #  3     ecut=    30.00 Ry     beta= 0.50
     Davidson diagonalization with overlap
     ethr =  2.32E-05,  avg # of iterations =  2.0

     total cpu time spent up to now is        1.7 secs

     total energy              =    -426.13138566 Ry
     estimated scf accuracy    <       0.00007040 Ry

     iteration #  4     ecut=    30.00 Ry     beta= 0.50
     Davidson diagonalization with overlap
     ethr =  2.51E-07,  avg # of iterations =  3.8

     total cpu time spent up to now is        2.0 secs

     total energy              =    -426.13140458 Ry
     estimated scf accuracy    <       0.00000653 Ry

     iteration #  5     ecut=    30.00 Ry     beta= 0.50
     Davidson diagonalization with overlap
     ethr =  2.33E-08,  avg # of iterations =  2.3

     total cpu time spent up to now is        2.3 secs

     End of self-consistent calculation

          k = 0.0000 0.0000 0.0000 (   869 PWs)   bands (ev):

   -16.8014 -16.8014 -16.8014 -16.7763 -16.7763 -16.5748 -16.5748 -16.5748
   -16.5518 -16.5518  -4.6500   7.9757   8.1694   8.1694

          k = 0.1414 0.1414-0.1414 (   872 PWs)   bands (ev):

   -16.8253 -16.8253 -16.7984 -16.7515 -16.7515 -16.5890 -16.5890 -16.5749
   -16.5383 -16.5383  -4.1692   4.2990   7.4966   7.4966

          k = 0.2828 0.2828-0.2828 (   847 PWs)   bands (ev):

   -16.8238 -16.8238 -16.7902 -16.7304 -16.7304 -16.5953 -16.5953 -16.5824
   -16.5241 -16.5241  -2.9390   1.1438   6.8512   6.8512

          k = 0.2828 0.0000 0.0000 (   853 PWs)   bands (ev):

   -16.8172 -16.8148 -16.8148 -16.7447 -16.7225 -16.6323 -16.5701 -16.5439
   -16.5439 -16.5378  -4.0016   4.2898   6.5610   6.5610

          k = 0.4243 0.1414-0.1414 (   852 PWs)   bands (ev):

   -16.8389 -16.8249 -16.7872 -16.7235 -16.6945 -16.6546 -16.5958 -16.5712
   -16.5250 -16.5145  -2.9501   1.8063   5.2485   5.9941

          k =-0.1414-0.4243 0.4243 (   842 PWs)   bands (ev):

   -16.8412 -16.8298 -16.7618 -16.7110 -16.7031 -16.6234 -16.6198 -16.5952
   -16.5146 -16.5042  -2.1861   0.5758   4.4434   6.2612

          k = 0.0000-0.2828 0.2828 (   857 PWs)   bands (ev):

   -16.8374 -16.8317 -16.7793 -16.7373 -16.7137 -16.6216 -16.6012 -16.5763
   -16.5259 -16.5210  -3.4011   2.6075   5.0136   7.1701

          k = 0.5657 0.0000 0.0000 (   846 PWs)   bands (ev):

   -16.8280 -16.8280 -16.7894 -16.7162 -16.6896 -16.6406 -16.6222 -16.5653
   -16.5133 -16.5133  -2.1167   0.7816   5.2635   5.2635

          k = 0.0000-0.5657 0.5657 (   842 PWs)   bands (ev):

   -16.8488 -16.8305 -16.7553 -16.7134 -16.6640 -16.6463 -16.6393 -16.5973
   -16.5035 -16.4962  -1.0531  -0.3945   4.0305   5.3787

          k =-0.1414-0.4243 0.7071 (   840 PWs)   bands (ev):

   -16.8432 -16.8419 -16.7448 -16.6938 -16.6810 -16.6600 -16.6249 -16.6023
   -16.5018 -16.4972  -1.7488   0.4130   4.0854   5.0612

     highest occupied level (ev):     8.1694

!    total energy              =    -426.13140564 Ry
     estimated scf accuracy    <       0.00000008 Ry

     The total energy is the sum of the following terms:
     one-electron contribution =    -279.02828338 Ry
     hartree contribution      =     164.89509916 Ry
     xc contribution           =    -114.50374636 Ry
     ewald contribution        =    -197.49447506 Ry

     convergence has been achieved in   5 iterations

     Forces acting on atoms (cartesian axes, Ry/au):

     atom    1 type  1   force =     0.00000000   -0.00000000    0.00000000
     atom    2 type  1   force =    -0.00000000    0.00000000   -0.00000000

     Total force =     0.000000     Total SCF correction =     0.000000


     Computing stress (Cartesian axis) and pressure

          total   stress  (Ry/bohr**3)                   (kbar)     P=     -150.82
  -0.00102526  -0.00000000  -0.00000000         -150.82       -0.00       -0.00
   0.00000000  -0.00102526  -0.00000000            0.00     -150.82       -0.00
  -0.00000000  -0.00000000  -0.00102526           -0.00       -0.00     -150.82

     Message from routine punch:
     Nothing written, as per user request (disk_io='none')

     init_run     :      0.61s CPU      0.62s WALL (       1 calls)
     electrons    :      1.45s CPU      1.49s WALL (       1 calls)
     forces       :      0.04s CPU      0.04s WALL (       1 calls)
     stress       :      0.43s CPU      0.44s WALL (       1 calls)

     Called by init_run:
     wfcinit      :      0.22s CPU      0.23s WALL (       1 calls)
     potinit      :      0.01s CPU      0.01s WALL (       1 calls)
     hinit0       :      0.34s CPU      0.34s WALL (       1 calls)

     Called by electrons:
     c_bands      :      0.99s CPU      1.02s WALL (       6 calls)
     sum_band     :      0.33s CPU      0.34s WALL (       6 calls)
     v_of_rho     :      0.01s CPU      0.01s WALL (       6 calls)
     newd         :      0.13s CPU      0.14s WALL (       6 calls)
     mix_rho      :      0.00s CPU      0.00s WALL (       6 calls)

     Called by c_bands:
     init_us_2    :      0.05s CPU      0.05s WALL (     150 calls)
     cegterg      :      0.88s CPU      0.91s WALL (      60 calls)

     Called by *egterg:
     cdiaghg      :      0.05s CPU      0.05s WALL (     177 calls)
     h_psi        :      0.93s CPU      0.95s WALL (     197 calls)
     s_psi        :      0.02s CPU      0.02s WALL (     197 calls)
     g_psi        :      0.01s CPU      0.01s WALL (     127 calls)

     Called by h_psi:
     h_psi:calbec :      0.03s CPU      0.03s WALL (     197 calls)
     vloc_psi     :      0.86s CPU      0.89s WALL (     197 calls)
     add_vuspsi   :      0.03s CPU      0.03s WALL (     197 calls)

     General routines
     calbec       :      0.07s CPU      0.07s WALL (     427 calls)
     fft          :      0.16s CPU      0.16s WALL (      33 calls)
     ffts         :      0.00s CPU      0.00s WALL (       6 calls)
     fftw         :      0.81s CPU      0.84s WALL (    5186 calls)

     Parallel routines

     PWSCF        :      2.66s CPU      2.76s WALL


   This run was terminated on:  23:55:36   7Oct2025            

=------------------------------------------------------------------------------=
   JOB DONE.
=------------------------------------------------------------------------------=
