
     Program PWSCF v.7.4.1 starts on 21Oct2025 at 17:33:22 

     This program is part of the open-source Quantum ESPRESSO suite
     for quantum simulation of materials; please cite
         "P. Giannozzi et al., J. Phys.:Condens. Matter 21 395502 (2009);
         "P. Giannozzi et al., J. Phys.:Condens. Matter 29 465901 (2017);
         "P. Giannozzi et al., J. Chem. Phys. 152 154105 (2020);
          URL http://www.quantum-espresso.org", 
     in publications or presentations arising from this work. More details at
     http://www.quantum-espresso.org/quote

     Parallel version (MPI), running on     2 processors

     MPI processes distributed on     1 nodes
     216 MiB available memory on the printing compute node when the environment starts

     Waiting for input...
     Reading input from standard input

     Current dimensions of program PWSCF are:
     Max number of different atomic species (ntypx) = 10
     Max number of k-points (npk) =  40000
     Max angular momentum in pseudopotentials (lmaxx) =  4
     Message from routine setup:
     using ibrav=0 with symmetry is DISCOURAGED, use correct ibrav instead

     R & G space division:  proc/nbgrp/npool/nimage =       2
     Subspace diagonalization in iterative solution of the eigenvalue problem:
     a serial algorithm will be used


     Parallelization info
     --------------------
     sticks:   dense  smooth     PW     G-vecs:    dense   smooth      PW
     Min         318     156     54                 5208     1847     373
     Max         319     157     55                 5209     1848     376
     Sum         637     313    109                10417     3695     749

     Using Slab Decomposition



     bravais-lattice index     =            0
     lattice parameter (alat)  =       5.3450  a.u.
     unit-cell volume          =     107.9734 (a.u.)^3
     number of atoms/cell      =            1
     number of atomic types    =            1
     number of electrons       =        11.00
     number of Kohn-Sham states=           10
     kinetic-energy cutoff     =      40.0000  Ry
     charge density cutoff     =     320.0000  Ry
     scf convergence threshold =      1.0E-07
     mixing beta               =       0.7000
     number of iterations used =            8  plain     mixing
     energy convergence thresh.=      1.0E-04
     force convergence thresh. =      1.0E-03
     press convergence thresh. =      5.0E-01
     Exchange-correlation=  SLA  PZ   NOGX NOGC
                           (   1   1   0   0   0   0   0)
     nstep                     =           50


     celldm(1)=   5.344953  celldm(2)=   0.000000  celldm(3)=   0.000000
     celldm(4)=   0.000000  celldm(5)=   0.000000  celldm(6)=   0.000000

     crystal axes: (cart. coord. in units of alat)
               a(1) = (   0.000000   0.707107   0.707107 )  
               a(2) = (   0.707107   0.000000   0.707107 )  
               a(3) = (   0.707107   0.707107   0.000000 )  

     reciprocal axes: (cart. coord. in units 2 pi/alat)
               b(1) = ( -0.707107  0.707107  0.707107 )  
               b(2) = (  0.707107 -0.707107  0.707107 )  
               b(3) = (  0.707107  0.707107 -0.707107 )  


     PseudoPot. # 1 for Au read from file:
     /home/bond/Software/QE/qe-7.4.1/pseudo/Au.pz-d-rrkjus.UPF
     MD5 check sum: 424ffd4ac9c90487cbadcd287136c95b
     Pseudo is Ultrasoft, Zval = 11.0
     Generated by new atomic code, or converted to UPF format
     Using radial grid of 1279 points,  3 beta functions with: 
                l(1) =   2
                l(2) =   2
                l(3) =   1
     Q(r) pseudized with 0 coefficients 


     atomic species   valence    mass     pseudopotential
     Au               11.00   196.96657     Au( 1.00)

     48 Sym. Ops., with inversion, found



   Cartesian axes

     site n.     atom                  positions (alat units)
         1        Au     tau(   1) = (   0.0000000   0.0000000   0.0000000  )

     number of k points=    28  Methfessel-Paxton smearing, width (Ry)=  0.0200
                       cart. coord. in units 2pi/alat
        k(    1) = (   0.0589256   0.0589256   0.0589256), wk =   0.0185185
        k(    2) = (   0.1767767   0.1767767  -0.0589256), wk =   0.0555556
        k(    3) = (   0.2946278   0.2946278  -0.1767767), wk =   0.0555556
        k(    4) = (  -0.2946278  -0.2946278   0.4124790), wk =   0.0555556
        k(    5) = (  -0.1767767  -0.1767767   0.2946278), wk =   0.0555556
        k(    6) = (  -0.0589256  -0.0589256   0.1767767), wk =   0.0555556
        k(    7) = (   0.2946278   0.0589256   0.0589256), wk =   0.0555556
        k(    8) = (   0.4124790   0.1767767  -0.0589256), wk =   0.1111111
        k(    9) = (  -0.1767767  -0.4124790   0.5303301), wk =   0.1111111
        k(   10) = (  -0.0589256  -0.2946278   0.4124790), wk =   0.1111111
        k(   11) = (   0.0589256  -0.1767767   0.2946278), wk =   0.1111111
        k(   12) = (   0.5303301   0.0589256   0.0589256), wk =   0.0555556
        k(   13) = (  -0.0589256  -0.5303301   0.6481812), wk =   0.1111111
        k(   14) = (   0.0589256  -0.4124790   0.5303301), wk =   0.1111111
        k(   15) = (   0.1767767  -0.2946278   0.4124790), wk =   0.1111111
        k(   16) = (  -0.6481812   0.0589256   0.0589256), wk =   0.0555556
        k(   17) = (  -0.5303301   0.1767767  -0.0589256), wk =   0.1111111
        k(   18) = (  -0.4124790   0.0589256   0.0589256), wk =   0.0555556
        k(   19) = (   0.1767767   0.1767767   0.1767767), wk =   0.0185185
        k(   20) = (   0.2946278   0.2946278   0.0589256), wk =   0.0555556
        k(   21) = (  -0.2946278  -0.2946278   0.6481812), wk =   0.0555556
        k(   22) = (  -0.1767767  -0.1767767   0.5303301), wk =   0.0555556
        k(   23) = (   0.4124790   0.1767767   0.1767767), wk =   0.0555556
        k(   24) = (  -0.1767767  -0.4124790   0.7660323), wk =   0.1111111
        k(   25) = (  -0.0589256  -0.2946278   0.6481812), wk =   0.1111111
        k(   26) = (  -0.7660323   0.1767767   0.1767767), wk =   0.0555556
        k(   27) = (   0.2946278   0.2946278   0.2946278), wk =   0.0185185
        k(   28) = (  -0.2946278  -0.2946278   0.8838835), wk =   0.0555556

     Dense  grid:    10417 G-vectors     FFT dimensions: (  32,  32,  32)

     Smooth grid:     3695 G-vectors     FFT dimensions: (  24,  24,  24)

     Estimated max dynamical RAM per process >      14.76 MB

     Estimated total dynamical RAM >      29.53 MB

     Initial potential from superposition of free atoms

     starting charge      10.9999, renormalised to      11.0000
     Starting wfcs are    9 randomized atomic wfcs +    1 random wfcs

     total cpu time spent up to now is        1.3 secs

     Self-consistent Calculation

     iteration #  1     ecut=    40.00 Ry     beta= 0.70
     Davidson diagonalization with overlap
     ethr =  1.00E-02,  avg # of iterations =  5.2

     Threshold (ethr) on eigenvalues was too large:
     Diagonalizing with lowered threshold

     Davidson diagonalization with overlap
     ethr =  6.99E-04,  avg # of iterations =  1.0

     total cpu time spent up to now is        2.1 secs

     total energy              =     -66.84419573 Ry
     estimated scf accuracy    <       0.07789765 Ry

     iteration #  2     ecut=    40.00 Ry     beta= 0.70
     Davidson diagonalization with overlap
     ethr =  7.08E-04,  avg # of iterations =  2.0

     total cpu time spent up to now is        2.5 secs

     total energy              =     -66.86684324 Ry
     estimated scf accuracy    <       0.02525662 Ry

     iteration #  3     ecut=    40.00 Ry     beta= 0.70
     Davidson diagonalization with overlap
     ethr =  2.30E-04,  avg # of iterations =  1.6

     total cpu time spent up to now is        2.8 secs

     total energy              =     -66.87183005 Ry
     estimated scf accuracy    <       0.00003383 Ry

     iteration #  4     ecut=    40.00 Ry     beta= 0.70
     Davidson diagonalization with overlap
     ethr =  3.08E-07,  avg # of iterations =  2.9

     total cpu time spent up to now is        3.2 secs

     total energy              =     -66.87184815 Ry
     estimated scf accuracy    <       0.00000177 Ry

     iteration #  5     ecut=    40.00 Ry     beta= 0.70
     Davidson diagonalization with overlap
     ethr =  1.61E-08,  avg # of iterations =  1.0

     total cpu time spent up to now is        3.7 secs

     End of self-consistent calculation

          k = 0.0589 0.0589 0.0589 (   471 PWs)   bands (ev):

     6.6570  11.9199  12.0957  12.0957  13.6617  13.6617  33.7686  35.5341
    37.6086  37.6086

          k = 0.1768 0.1768-0.0589 (   471 PWs)   bands (ev):

     7.9018  11.5864  12.3755  12.4480  13.3518  14.0432  31.1355  33.9643
    36.7174  39.0535

          k = 0.2946 0.2946-0.1768 (   463 PWs)   bands (ev):

     9.2506  12.0227  12.2400  12.7987  14.2729  15.3499  24.2871  33.0164
    34.6970  37.3640

          k =-0.2946-0.2946 0.4125 (   459 PWs)   bands (ev):

     9.2989  11.8322  12.1239  13.9349  15.0641  16.8241  20.6027  32.7204
    34.5769  34.8594

          k =-0.1768-0.1768 0.2946 (   465 PWs)   bands (ev):

     9.0139  11.9355  12.1619  12.4005  14.2649  14.5200  26.5442  33.9367
    35.3027  37.1744

          k =-0.0589-0.0589 0.1768 (   468 PWs)   bands (ev):

     7.3162  11.6259  12.3593  12.3690  13.3445  13.8609  33.3416  34.5426
    36.4013  37.6562

          k = 0.2946 0.0589 0.0589 (   469 PWs)   bands (ev):

     8.4831  11.1059  12.5273  12.8941  13.3498  14.2136  31.6109  34.1045
    34.8848  36.3330

          k = 0.4125 0.1768-0.0589 (   460 PWs)   bands (ev):

     9.9141  10.9101  11.9577  13.3711  14.2926  15.6227  27.0420  30.6000
    32.6640  36.6709

          k =-0.1768-0.4125 0.5303 (   458 PWs)   bands (ev):

    10.1806  11.2731  12.3672  13.0004  14.9525  19.3342  20.8605  29.6521
    31.2217  35.9073

          k =-0.0589-0.2946 0.4125 (   461 PWs)   bands (ev):

    10.3286  11.4958  11.5998  13.1175  14.0994  16.8689  25.0537  28.8026
    33.2886  37.2828

          k = 0.0589-0.1768 0.2946 (   466 PWs)   bands (ev):

     8.9282  11.2971  12.2273  12.7936  13.5086  14.6729  29.0651  32.5513
    35.6371  37.5482

          k = 0.5303 0.0589 0.0589 (   457 PWs)   bands (ev):

     9.6892  10.1033  13.7558  14.3314  15.0381  15.9071  26.7580  28.8557
    29.4191  35.0128

          k =-0.0589-0.5303 0.6482 (   462 PWs)   bands (ev):

     9.8984  10.2741  13.3329  14.3456  15.2645  19.7341  23.0201  26.1628
    28.2435  36.8288

          k = 0.0589-0.4125 0.5303 (   460 PWs)   bands (ev):

    10.5073  11.1601  12.0511  13.4719  14.7794  19.9465  22.4526  26.0211
    30.7394  36.6141

          k = 0.1768-0.2946 0.4125 (   458 PWs)   bands (ev):

     9.6636  11.6825  12.4451  12.7959  14.7896  16.8562  22.3799  31.9540
    33.0947  35.7098

          k =-0.6482 0.0589 0.0589 (   460 PWs)   bands (ev):

     9.5065   9.8546  14.6963  14.7964  15.3160  18.1148  23.6338  27.1737
    28.1629  35.2066

          k =-0.5303 0.1768-0.0589 (   461 PWs)   bands (ev):

    10.0730  10.5169  12.5396  14.0432  14.9304  17.3341  25.0481  28.3891
    29.5914  36.6086

          k =-0.4125 0.0589 0.0589 (   458 PWs)   bands (ev):

     9.5533  10.5518  12.6310  13.6027  14.3093  14.6380  29.4950  31.5611
    32.3349  34.9973

          k = 0.1768 0.1768 0.1768 (   477 PWs)   bands (ev):

     8.3186  11.8411  12.3159  12.3159  13.8901  13.8901  28.7612  34.3882
    37.9723  37.9723

          k = 0.2946 0.2946 0.0589 (   463 PWs)   bands (ev):

     9.6359  11.4959  12.0686  12.7458  13.5216  15.6298  26.8706  30.6476
    35.3286  38.3086

          k =-0.2946-0.2946 0.6482 (   456 PWs)   bands (ev):

    10.4668  11.4295  12.0188  13.0852  14.2835  18.2021  23.5871  27.1474
    34.1056  34.7866

          k =-0.1768-0.1768 0.5303 (   459 PWs)   bands (ev):

    10.0438  11.0379  12.3696  13.3233  15.1530  18.1559  22.7121  29.1318
    31.3164  34.9846

          k = 0.4125 0.1768 0.1768 (   459 PWs)   bands (ev):

     9.7071  11.5910  12.0002  12.7568  14.9993  15.8010  24.4962  32.7069
    32.9763  34.7693

          k =-0.1768-0.4125 0.7660 (   458 PWs)   bands (ev):

    10.7002  11.0616  11.6265  13.6092  14.7675  18.7260  23.6162  27.1508
    29.9789  38.1922

          k =-0.0589-0.2946 0.6482 (   462 PWs)   bands (ev):

    10.5109  10.9720  12.0012  13.6865  15.2442  21.0873  22.7613  25.2279
    27.8371  39.2309

          k =-0.7660 0.1768 0.1768 (   457 PWs)   bands (ev):

    10.0500  10.7512  12.8488  13.9000  14.9827  20.7428  21.7008  25.6786
    30.4690  35.4375

          k = 0.2946 0.2946 0.2946 (   470 PWs)   bands (ev):

     9.1004  12.0177  12.0177  14.5107  14.8616  14.8616  22.1034  32.8671
    35.9655  35.9655

          k =-0.2946-0.2946 0.8839 (   456 PWs)   bands (ev):

     9.8184  11.5478  12.5299  12.9815  14.8073  18.3345  20.8139  30.6383
    34.0652  34.2885

     the Fermi energy is    16.9657 ev

!    total energy              =     -66.87184820 Ry
     estimated scf accuracy    <       0.00000007 Ry
     smearing contrib. (-TS)   =      -0.00030777 Ry
     internal energy E=F+TS    =     -66.87154043 Ry

     The total energy is F=E-TS. E is the sum of the following terms:
     one-electron contribution =      10.18887040 Ry
     hartree contribution      =       6.82517761 Ry
     xc contribution           =     -10.49290157 Ry
     ewald contribution        =     -73.39268687 Ry

     convergence has been achieved in   5 iterations


     Computing stress (Cartesian axis) and pressure

          total   stress  (Ry/bohr**3)                   (kbar)     P=       72.74
   0.00049444   0.00000000   0.00000000           72.74        0.00        0.00
  -0.00000000   0.00049444   0.00000000           -0.00       72.74        0.00
  -0.00000000   0.00000000   0.00049444           -0.00        0.00       72.74


     BFGS Geometry Optimization
     Energy error            =      2.0E-03 Ry
     Gradient error          =      0.0E+00 Ry/Bohr
     Cell gradient error     =      7.3E+01 kbar

     number of scf cycles    =   1
     number of bfgs steps    =   0

     enthalpy           new  =     -66.8718481956 Ry

     new trust radius        =       0.0256889236 bohr
     new conv_thr            =       0.0000001000 Ry

     new unit-cell volume =    112.02706 a.u.^3 (    16.60070 Ang^3 )
     density =     19.70222 g/cm^3

CELL_PARAMETERS (angstrom)
   0.000000000   2.024722228   2.024722228
   2.024722228   0.000000000   2.024722228
   2.024722228   2.024722228  -0.000000000

ATOMIC_POSITIONS (angstrom)
Au               0.0000000000        0.0000000000        0.0000000000    0   0   0


     Message from routine punch:
     Nothing written, as per user request (disk_io='none')
     NEW-OLD atomic charge density approx. for the potential
     New effective cutoffs (rho, wfc):  310.12   39.00

     total cpu time spent up to now is        4.3 secs

     Self-consistent Calculation

     iteration #  1     ecut=    40.00 Ry     beta= 0.70
     Davidson diagonalization with overlap
     ethr =  1.00E-06,  avg # of iterations =  3.4

     Threshold (ethr) on eigenvalues was too large:
     Diagonalizing with lowered threshold

     Davidson diagonalization with overlap
     ethr =  6.81E-09,  avg # of iterations =  1.2

     total cpu time spent up to now is        5.2 secs

     total energy              =     -66.87279592 Ry
     estimated scf accuracy    <       0.00000077 Ry

     iteration #  2     ecut=    40.00 Ry     beta= 0.70
     Davidson diagonalization with overlap
     ethr =  6.96E-09,  avg # of iterations =  1.0

     total cpu time spent up to now is        5.5 secs

     End of self-consistent calculation

          k = 0.0582 0.0582 0.0582 (   471 PWs)   bands (ev):

     6.1677  11.2551  11.4198  11.4198  12.8890  12.8890  32.7670  34.3716
    36.3828  36.3828

          k = 0.1746 0.1746-0.0582 (   471 PWs)   bands (ev):

     7.3742  10.9444  11.6852  11.7522  12.6017  13.2490  29.9590  32.8041
    35.5226  37.8147

          k = 0.2910 0.2910-0.1746 (   463 PWs)   bands (ev):

     8.7062  11.3539  11.5579  12.1115  13.4662  14.4918  23.1774  31.9160
    33.5068  36.0020

          k =-0.2910-0.2910 0.4074 (   459 PWs)   bands (ev):

     8.7624  11.1758  11.4488  13.1835  14.2045  15.9957  19.5228  31.7221
    33.3141  33.5909

          k =-0.1746-0.1746 0.2910 (   465 PWs)   bands (ev):

     8.4673  11.2789  11.4877  11.7083  13.4667  13.6959  25.4021  32.8991
    33.9935  35.8067

          k =-0.0582-0.0582 0.1746 (   468 PWs)   bands (ev):

     6.8057  10.9801  11.6689  11.6777  12.5943  13.0762  32.1690  33.4888
    35.1215  36.4289

          k = 0.2910 0.0582 0.0582 (   469 PWs)   bands (ev):

     7.9394  10.4914  11.8298  12.1727  12.6031  13.4071  30.4083  32.8381
    33.7480  35.1090

          k = 0.4074 0.1746-0.0582 (   460 PWs)   bands (ev):

     9.3422  10.3078  11.2950  12.6230  13.4896  14.7506  25.9020  29.3930
    31.4599  35.4049

          k =-0.1746-0.4074 0.5239 (   458 PWs)   bands (ev):

     9.6082  10.6558  11.6909  12.2757  14.1014  18.3715  19.8356  28.4485
    30.0460  34.7234

          k =-0.0582-0.2910 0.4074 (   461 PWs)   bands (ev):

     9.7416  10.8597  10.9660  12.3864  13.3056  15.9452  23.9468  27.6200
    32.0973  36.0228

          k = 0.0582-0.1746 0.2910 (   466 PWs)   bands (ev):

     8.3734  10.6725  11.5484  12.0783  12.7518  13.8425  27.8938  31.3204
    34.4794  36.2966

          k = 0.5239 0.0582 0.0582 (   457 PWs)   bands (ev):

     9.1474   9.5451  13.0030  13.5215  14.1799  15.0583  25.5931  27.7007
    28.3019  33.7558

          k =-0.0582-0.5239 0.6403 (   462 PWs)   bands (ev):

     9.3529   9.7072  12.6004  13.5367  14.3929  18.7772  21.9343  25.0661
    27.1361  35.5227

          k = 0.0582-0.4074 0.5239 (   460 PWs)   bands (ev):

     9.9249  10.5504  11.3891  12.7187  13.9404  18.9475  21.4131  24.8881
    29.5481  35.3832

          k = 0.1746-0.2910 0.4074 (   458 PWs)   bands (ev):

     9.1094  11.0373  11.7532  12.1015  13.9508  15.9615  21.3087  30.7554
    31.9497  34.4727

          k =-0.6403 0.0582 0.0582 (   460 PWs)   bands (ev):

     8.9801   9.3096  13.8804  13.9543  14.4405  17.2518  22.4758  26.1099
    27.0994  33.9225

          k =-0.5239 0.1746-0.0582 (   461 PWs)   bands (ev):

     9.5133   9.9374  11.8480  13.2553  14.0822  16.4153  23.9576  27.2247
    28.4306  35.3337

          k =-0.4074 0.0582 0.0582 (   458 PWs)   bands (ev):

     8.9944   9.9690  11.9322  12.8392  13.5130  13.8050  28.3070  30.3650
    31.0812  33.7478

          k = 0.1746 0.1746 0.1746 (   477 PWs)   bands (ev):

     7.7839  11.1883  11.6281  11.6281  13.1064  13.1064  27.5962  33.3534
    36.5933  36.5933

          k = 0.2910 0.2910 0.0582 (   463 PWs)   bands (ev):

     9.0650  10.8608  11.4039  12.0344  12.7625  14.7508  25.7291  29.4296
    34.2226  36.8941

          k =-0.2910-0.2910 0.6403 (   456 PWs)   bands (ev):

     9.8790  10.8041  11.3625  12.3550  13.4763  17.2457  22.5038  25.9968
    32.8162  33.6427

          k =-0.1746-0.1746 0.5239 (   459 PWs)   bands (ev):

     9.4822  10.4345  11.6878  12.5776  14.2875  17.2125  21.6763  27.9337
    30.1312  33.7738

          k = 0.4074 0.1746 0.1746 (   459 PWs)   bands (ev):

     9.1484  10.9570  11.3353  12.0444  14.1435  14.9419  23.3980  31.5346
    31.7400  33.5398

          k =-0.1746-0.4074 0.7567 (   458 PWs)   bands (ev):

    10.1083  10.4556  10.9839  12.8493  13.9300  17.7546  22.5511  26.0085
    28.7972  36.9469

          k =-0.0582-0.2910 0.6403 (   462 PWs)   bands (ev):

     9.9365  10.3674  11.3405  12.9210  14.3742  20.0408  21.7388  24.1310
    26.6972  37.9295

          k =-0.7567 0.1746 0.1746 (   457 PWs)   bands (ev):

     9.4940  10.1620  12.1440  13.1191  14.1295  19.7071  20.7216  24.5415
    29.3077  34.1822

          k = 0.2910 0.2910 0.2910 (   470 PWs)   bands (ev):

     8.5690  11.3485  11.3485  13.7891  14.0157  14.0157  21.0167  31.9040
    34.6671  34.6671

          k =-0.2910-0.2910 0.8731 (   456 PWs)   bands (ev):

     9.2600  10.9118  11.8317  12.2792  13.9655  17.4234  19.7545  29.4493
    32.9690  33.0145

     the Fermi energy is    16.0731 ev

!    total energy              =     -66.87279596 Ry
     estimated scf accuracy    <       0.00000006 Ry
     smearing contrib. (-TS)   =      -0.00029764 Ry
     internal energy E=F+TS    =     -66.87249831 Ry

     The total energy is F=E-TS. E is the sum of the following terms:
     one-electron contribution =       8.93713086 Ry
     hartree contribution      =       7.14733207 Ry
     xc contribution           =     -10.46041249 Ry
     ewald contribution        =     -72.49654876 Ry

     convergence has been achieved in   2 iterations


     Computing stress (Cartesian axis) and pressure

          total   stress  (Ry/bohr**3)                   (kbar)     P=       -2.69
  -0.00001827  -0.00000000   0.00000000           -2.69       -0.00        0.00
  -0.00000000  -0.00001827   0.00000000           -0.00       -2.69        0.00
  -0.00000000   0.00000000  -0.00001827           -0.00        0.00       -2.69

     Energy error            =      9.5E-04 Ry
     Gradient error          =      0.0E+00 Ry/Bohr
     Cell gradient error     =      2.7E+00 kbar

     number of scf cycles    =   2
     number of bfgs steps    =   1

     enthalpy           old  =     -66.8718481956 Ry
     enthalpy           new  =     -66.8727959553 Ry

     CASE: enthalpy          _new < enthalpy          _old

     new trust radius        =       0.0009429834 bohr
     new conv_thr            =       0.0000000010 Ry

     new unit-cell volume =    111.87742 a.u.^3 (    16.57852 Ang^3 )
     density =     19.72858 g/cm^3

CELL_PARAMETERS (angstrom)
   0.000000000   2.023820288   2.023820288
   2.023820288   0.000000000   2.023820288
   2.023820288   2.023820288  -0.000000000

ATOMIC_POSITIONS (angstrom)
Au               0.0000000000        0.0000000000        0.0000000000    0   0   0


     Message from routine punch:
     Nothing written, as per user request (disk_io='none')
     NEW-OLD atomic charge density approx. for the potential
     New effective cutoffs (rho, wfc):  310.40   39.04

     total cpu time spent up to now is        5.7 secs

     Self-consistent Calculation

     iteration #  1     ecut=    40.00 Ry     beta= 0.70
     Davidson diagonalization with overlap
     ethr =  1.00E-06,  avg # of iterations =  2.0

     Threshold (ethr) on eigenvalues was too large:
     Diagonalizing with lowered threshold

     Davidson diagonalization with overlap
     ethr =  5.98E-11,  avg # of iterations =  2.0

     total cpu time spent up to now is        6.6 secs

     total energy              =     -66.87279699 Ry
     estimated scf accuracy    <          5.4E-09 Ry

     iteration #  2     ecut=    40.00 Ry     beta= 0.70
     Davidson diagonalization with overlap
     ethr =  4.87E-11,  avg # of iterations =  2.0

     total cpu time spent up to now is        6.9 secs

     total energy              =     -66.87279699 Ry
     estimated scf accuracy    <          1.8E-09 Ry

     iteration #  3     ecut=    40.00 Ry     beta= 0.70
     Davidson diagonalization with overlap
     ethr =  1.60E-11,  avg # of iterations =  1.6

     total cpu time spent up to now is        7.2 secs

     End of self-consistent calculation

          k = 0.0582 0.0582 0.0582 (   471 PWs)   bands (ev):

     6.1853  11.2789  11.4440  11.4440  12.9165  12.9165  32.8032  34.4133
    36.4268  36.4268

          k = 0.1747 0.1747-0.0582 (   471 PWs)   bands (ev):

     7.3931  10.9674  11.7098  11.7771  12.6283  13.2772  30.0011  32.8459
    35.5653  37.8590

          k = 0.2912 0.2912-0.1747 (   463 PWs)   bands (ev):

     8.7258  11.3778  11.5822  12.1361  13.4949  14.5223  23.2170  31.9558
    33.5491  36.0508

          k =-0.2912-0.2912 0.4076 (   459 PWs)   bands (ev):

     8.7816  11.1992  11.4729  13.2104  14.2350  16.0252  19.5612  31.7580
    33.3593  33.6364

          k =-0.1747-0.1747 0.2912 (   465 PWs)   bands (ev):

     8.4869  11.3024  11.5118  11.7330  13.4951  13.7251  25.4429  32.9363
    34.0404  35.8557

          k =-0.0582-0.0582 0.1747 (   468 PWs)   bands (ev):

     6.8240  11.0032  11.6936  11.7025  12.6209  13.1040  32.2111  33.5268
    35.1674  36.4729

          k = 0.2912 0.0582 0.0582 (   469 PWs)   bands (ev):

     7.9589  10.5134  11.8547  12.1984  12.6298  13.4357  30.4513  32.8834
    33.7887  35.1530

          k = 0.4076 0.1747-0.0582 (   460 PWs)   bands (ev):

     9.3627  10.3294  11.3187  12.6496  13.5182  14.7816  25.9427  29.4362
    31.5030  35.4502

          k =-0.1747-0.4076 0.5241 (   458 PWs)   bands (ev):

     9.6287  10.6779  11.7151  12.3016  14.1317  18.4059  19.8720  28.4916
    30.0881  34.7659

          k =-0.0582-0.2912 0.4076 (   461 PWs)   bands (ev):

     9.7627  10.8825  10.9886  12.4124  13.3339  15.9780  23.9863  27.6623
    32.1400  36.0678

          k = 0.0582-0.1747 0.2912 (   466 PWs)   bands (ev):

     8.3933  10.6949  11.5727  12.1039  12.7788  13.8721  27.9357  31.3645
    34.5208  36.3417

          k = 0.5241 0.0582 0.0582 (   457 PWs)   bands (ev):

     9.1668   9.5651  13.0299  13.5503  14.2104  15.0886  25.6348  27.7419
    28.3419  33.8005

          k =-0.0582-0.5241 0.6406 (   462 PWs)   bands (ev):

     9.3724   9.7275  12.6265  13.5655  14.4239  18.8114  21.9731  25.1052
    27.1757  35.5693

          k = 0.0582-0.4076 0.5241 (   460 PWs)   bands (ev):

     9.9458  10.5722  11.4128  12.7455  13.9703  18.9832  21.4501  24.9286
    29.5907  35.4273

          k = 0.1747-0.2912 0.4076 (   458 PWs)   bands (ev):

     9.1293  11.0604  11.7779  12.1263  13.9806  15.9933  21.3469  30.7985
    31.9907  34.5169

          k =-0.6406 0.0582 0.0582 (   460 PWs)   bands (ev):

     8.9989   9.3292  13.9095  13.9842  14.4716  17.2827  22.5171  26.1480
    27.1375  33.9683

          k =-0.5241 0.1747-0.0582 (   461 PWs)   bands (ev):

     9.5333   9.9582  11.8727  13.2833  14.1123  16.4481  23.9966  27.2664
    28.4720  35.3792

          k =-0.4076 0.0582 0.0582 (   458 PWs)   bands (ev):

     9.0144   9.9899  11.9572  12.8664  13.5414  13.8346  28.3496  30.4078
    31.1261  33.7923

          k = 0.1747 0.1747 0.1747 (   477 PWs)   bands (ev):

     7.8031  11.2116  11.6527  11.6527  13.1342  13.1342  27.6379  33.3905
    36.6426  36.6426

          k = 0.2912 0.2912 0.0582 (   463 PWs)   bands (ev):

     9.0855  10.8836  11.4276  12.0597  12.7895  14.7821  25.7699  29.4732
    34.2623  36.9448

          k =-0.2912-0.2912 0.6406 (   456 PWs)   bands (ev):

     9.9000  10.8265  11.3860  12.3809  13.5050  17.2798  22.5424  26.0379
    32.8623  33.6837

          k =-0.1747-0.1747 0.5241 (   459 PWs)   bands (ev):

     9.5023  10.4561  11.7122  12.6042  14.3182  17.2462  21.7132  27.9765
    30.1737  33.8171

          k = 0.4076 0.1747 0.1747 (   459 PWs)   bands (ev):

     9.1685  10.9796  11.3591  12.0698  14.1739  14.9725  23.4372  31.5768
    31.7843  33.5836

          k =-0.1747-0.4076 0.7570 (   458 PWs)   bands (ev):

    10.1295  10.4773  11.0069  12.8764  13.9598  17.7892  22.5891  26.0493
    28.8394  36.9915

          k =-0.0582-0.2912 0.6406 (   462 PWs)   bands (ev):

     9.9570  10.3890  11.3642  12.9482  14.4052  20.0782  21.7753  24.1702
    26.7378  37.9761

          k =-0.7570 0.1747 0.1747 (   457 PWs)   bands (ev):

     9.5139  10.1831  12.1692  13.1468  14.1599  19.7440  20.7566  24.5820
    29.3493  34.2270

          k = 0.2912 0.2912 0.2912 (   470 PWs)   bands (ev):

     8.5881  11.3724  11.3724  13.8149  14.0457  14.0457  21.0554  31.9386
    34.7137  34.7137

          k =-0.2912-0.2912 0.8735 (   456 PWs)   bands (ev):

     9.2800  10.9345  11.8566  12.3043  13.9955  17.4559  19.7922  29.4919
    33.0083  33.0601

     the Fermi energy is    16.1048 ev

!    total energy              =     -66.87279699 Ry
     estimated scf accuracy    <          3.7E-11 Ry
     smearing contrib. (-TS)   =      -0.00029891 Ry
     internal energy E=F+TS    =     -66.87249808 Ry

     The total energy is F=E-TS. E is the sum of the following terms:
     one-electron contribution =       8.98226658 Ry
     hartree contribution      =       7.13568479 Ry
     xc contribution           =     -10.46159171 Ry
     ewald contribution        =     -72.52885775 Ry

     convergence has been achieved in   3 iterations


     Computing stress (Cartesian axis) and pressure

          total   stress  (Ry/bohr**3)                   (kbar)     P=        0.25
   0.00000170   0.00000000   0.00000000            0.25        0.00        0.00
   0.00000000   0.00000170   0.00000000            0.00        0.25        0.00
   0.00000000  -0.00000000   0.00000170            0.00       -0.00        0.25

     Energy error            =      1.0E-06 Ry
     Gradient error          =      0.0E+00 Ry/Bohr
     Cell gradient error     =      2.5E-01 kbar

     bfgs converged in   3 scf cycles and   2 bfgs steps
     (criteria: energy <  1.0E-04 Ry, force <  1.0E-03 Ry/Bohr, cell <  5.0E-01 kbar)

     End of BFGS Geometry Optimization

     Final enthalpy           =     -66.8727969921 Ry

     File /home/bond/Work/Lab4/Problem3/Au_nk_6/pwscf.bfgs deleted, as requested
Begin final coordinates
     new unit-cell volume =    111.87742 a.u.^3 (    16.57852 Ang^3 )
     density =     19.72858 g/cm^3

CELL_PARAMETERS (angstrom)
   0.000000000   2.023820288   2.023820288
   2.023820288   0.000000000   2.023820288
   2.023820288   2.023820288  -0.000000000

ATOMIC_POSITIONS (angstrom)
Au               0.0000000000        0.0000000000        0.0000000000    0   0   0
End final coordinates


     Message from routine punch:
     Nothing written, as per user request (disk_io='none')

     Final scf calculation at the relaxed structure.
     The G-vectors are recalculated for the final unit cell
     Results may differ from those at the preceding step.

     Parallelization info
     --------------------
     sticks:   dense  smooth     PW     G-vecs:    dense   smooth      PW
     Min         324     156     54                 5423     1917     373
     Max         325     157     55                 5426     1922     376
     Sum         649     313    109                10849     3839     749

     Using Slab Decomposition



     bravais-lattice index     =            0
     lattice parameter (alat)  =       5.3450  a.u.
     unit-cell volume          =     111.8774 (a.u.)^3
     number of atoms/cell      =            1
     number of atomic types    =            1
     number of electrons       =        11.00
     number of Kohn-Sham states=           10
     kinetic-energy cutoff     =      40.0000  Ry
     charge density cutoff     =     320.0000  Ry
     scf convergence threshold =      1.0E-09
     mixing beta               =       0.7000
     number of iterations used =            8  plain     mixing
     press convergence thresh. =      5.0E-01
     Exchange-correlation=  SLA  PZ   NOGX NOGC
                           (   1   1   0   0   0   0   0)

     celldm(1)=   5.344953  celldm(2)=   0.000000  celldm(3)=   0.000000
     celldm(4)=   0.000000  celldm(5)=   0.000000  celldm(6)=   0.000000

     crystal axes: (cart. coord. in units of alat)
               a(1) = (   0.000000   0.715529   0.715529 )  
               a(2) = (   0.715529   0.000000   0.715529 )  
               a(3) = (   0.715529   0.715529  -0.000000 )  

     reciprocal axes: (cart. coord. in units 2 pi/alat)
               b(1) = ( -0.698784  0.698784  0.698784 )  
               b(2) = (  0.698784 -0.698784  0.698784 )  
               b(3) = (  0.698784  0.698784 -0.698784 )  


     PseudoPot. # 1 for Au read from file:
     /home/bond/Software/QE/qe-7.4.1/pseudo/Au.pz-d-rrkjus.UPF
     MD5 check sum: 424ffd4ac9c90487cbadcd287136c95b
     Pseudo is Ultrasoft, Zval = 11.0
     Generated by new atomic code, or converted to UPF format
     Using radial grid of 1279 points,  3 beta functions with: 
                l(1) =   2
                l(2) =   2
                l(3) =   1
     Q(r) pseudized with 0 coefficients 


     atomic species   valence    mass     pseudopotential
     Au               11.00   196.96657     Au( 1.00)

     48 Sym. Ops., with inversion, found



   Cartesian axes

     site n.     atom                  positions (alat units)
         1        Au     tau(   1) = (   0.0000000   0.0000000   0.0000000  )

     number of k points=    28  Methfessel-Paxton smearing, width (Ry)=  0.0200
                       cart. coord. in units 2pi/alat
        k(    1) = (   0.0582320   0.0582320   0.0582320), wk =   0.0185185
        k(    2) = (   0.1746960   0.1746960  -0.0582320), wk =   0.0555556
        k(    3) = (   0.2911601   0.2911601  -0.1746960), wk =   0.0555556
        k(    4) = (  -0.2911601  -0.2911601   0.4076241), wk =   0.0555556
        k(    5) = (  -0.1746960  -0.1746960   0.2911601), wk =   0.0555556
        k(    6) = (  -0.0582320  -0.0582320   0.1746960), wk =   0.0555556
        k(    7) = (   0.2911601   0.0582320   0.0582320), wk =   0.0555556
        k(    8) = (   0.4076241   0.1746960  -0.0582320), wk =   0.1111111
        k(    9) = (  -0.1746960  -0.4076241   0.5240881), wk =   0.1111111
        k(   10) = (  -0.0582320  -0.2911601   0.4076241), wk =   0.1111111
        k(   11) = (   0.0582320  -0.1746960   0.2911601), wk =   0.1111111
        k(   12) = (   0.5240881   0.0582320   0.0582320), wk =   0.0555556
        k(   13) = (  -0.0582320  -0.5240881   0.6405521), wk =   0.1111111
        k(   14) = (   0.0582320  -0.4076241   0.5240881), wk =   0.1111111
        k(   15) = (   0.1746960  -0.2911601   0.4076241), wk =   0.1111111
        k(   16) = (  -0.6405521   0.0582320   0.0582320), wk =   0.0555556
        k(   17) = (  -0.5240881   0.1746960  -0.0582320), wk =   0.1111111
        k(   18) = (  -0.4076241   0.0582320   0.0582320), wk =   0.0555556
        k(   19) = (   0.1746960   0.1746960   0.1746960), wk =   0.0185185
        k(   20) = (   0.2911601   0.2911601   0.0582320), wk =   0.0555556
        k(   21) = (  -0.2911601  -0.2911601   0.6405521), wk =   0.0555556
        k(   22) = (  -0.1746960  -0.1746960   0.5240881), wk =   0.0555556
        k(   23) = (   0.4076241   0.1746960   0.1746960), wk =   0.0555556
        k(   24) = (  -0.1746960  -0.4076241   0.7570162), wk =   0.1111111
        k(   25) = (  -0.0582320  -0.2911601   0.6405521), wk =   0.1111111
        k(   26) = (  -0.7570162   0.1746960   0.1746960), wk =   0.0555556
        k(   27) = (   0.2911601   0.2911601   0.2911601), wk =   0.0185185
        k(   28) = (  -0.2911601  -0.2911601   0.8734802), wk =   0.0555556

     Dense  grid:    10849 G-vectors     FFT dimensions: (  32,  32,  32)

     Smooth grid:     3839 G-vectors     FFT dimensions: (  24,  24,  24)

     Estimated max dynamical RAM per process >      15.34 MB

     Estimated total dynamical RAM >      30.68 MB

     Initial potential from superposition of free atoms

     starting charge      10.9999, renormalised to      11.0000
     Starting wfcs are    9 randomized atomic wfcs +    1 random wfcs

     total cpu time spent up to now is        7.6 secs

     Self-consistent Calculation

     iteration #  1     ecut=    40.00 Ry     beta= 0.70
     Davidson diagonalization with overlap
     c_bands:  1 eigenvalues not converged
     ethr =  1.00E-06,  avg # of iterations = 11.8

     total cpu time spent up to now is        8.4 secs

     total energy              =     -66.84383151 Ry
     estimated scf accuracy    <       0.07981937 Ry

     iteration #  2     ecut=    40.00 Ry     beta= 0.70
     Davidson diagonalization with overlap
     ethr =  7.26E-04,  avg # of iterations =  2.0

     total cpu time spent up to now is        8.7 secs

     total energy              =     -66.86722683 Ry
     estimated scf accuracy    <       0.02866083 Ry

     iteration #  3     ecut=    40.00 Ry     beta= 0.70
     Davidson diagonalization with overlap
     ethr =  2.61E-04,  avg # of iterations =  1.7

     total cpu time spent up to now is        9.0 secs

     total energy              =     -66.87280702 Ry
     estimated scf accuracy    <       0.00003140 Ry

     iteration #  4     ecut=    40.00 Ry     beta= 0.70
     Davidson diagonalization with overlap
     ethr =  2.85E-07,  avg # of iterations =  2.2

     total cpu time spent up to now is        9.3 secs

     total energy              =     -66.87282742 Ry
     estimated scf accuracy    <       0.00000247 Ry

     iteration #  5     ecut=    40.00 Ry     beta= 0.70
     Davidson diagonalization with overlap
     ethr =  2.25E-08,  avg # of iterations =  1.0

     total cpu time spent up to now is        9.5 secs

     total energy              =     -66.87282748 Ry
     estimated scf accuracy    <       0.00000013 Ry

     iteration #  6     ecut=    40.00 Ry     beta= 0.70
     Davidson diagonalization with overlap
     ethr =  1.16E-09,  avg # of iterations =  1.2

     total cpu time spent up to now is        9.7 secs

     total energy              =     -66.87282750 Ry
     estimated scf accuracy    <          5.0E-09 Ry

     iteration #  7     ecut=    40.00 Ry     beta= 0.70
     Davidson diagonalization with overlap
     ethr =  4.53E-11,  avg # of iterations =  1.6

     total cpu time spent up to now is       10.0 secs

     End of self-consistent calculation

          k = 0.0582 0.0582 0.0582 (   495 PWs)   bands (ev):

     6.1853  11.2787  11.4438  11.4438  12.9163  12.9163  32.8032  34.4132
    36.4267  36.4267

          k = 0.1747 0.1747-0.0582 (   485 PWs)   bands (ev):

     7.3931  10.9672  11.7096  11.7769  12.6282  13.2770  30.0011  32.8459
    35.5653  37.8589

          k = 0.2912 0.2912-0.1747 (   484 PWs)   bands (ev):

     8.7257  11.3776  11.5821  12.1360  13.4947  14.5221  23.2169  31.9558
    33.5490  36.0508

          k =-0.2912-0.2912 0.4076 (   473 PWs)   bands (ev):

     8.7816  11.1990  11.4727  13.2103  14.2349  16.0251  19.5612  31.7580
    33.3593  33.6364

          k =-0.1747-0.1747 0.2912 (   481 PWs)   bands (ev):

     8.4869  11.3023  11.5116  11.7328  13.4949  13.7249  25.4428  32.9363
    34.0403  35.8557

          k =-0.0582-0.0582 0.1747 (   494 PWs)   bands (ev):

     6.8240  11.0030  11.6933  11.7023  12.6208  13.1038  32.2110  33.5267
    35.1673  36.4728

          k = 0.2912 0.0582 0.0582 (   482 PWs)   bands (ev):

     7.9589  10.5133  11.8545  12.1982  12.6296  13.4355  30.4513  32.8834
    33.7887  35.1529

          k = 0.4076 0.1747-0.0582 (   477 PWs)   bands (ev):

     9.3626  10.3293  11.3186  12.6495  13.5180  14.7815  25.9427  29.4362
    31.5029  35.4502

          k =-0.1747-0.4076 0.5241 (   475 PWs)   bands (ev):

     9.6286  10.6777  11.7150  12.3014  14.1315  18.4058  19.8720  28.4915
    30.0880  34.7658

          k =-0.0582-0.2912 0.4076 (   479 PWs)   bands (ev):

     9.7626  10.8823  10.9885  12.4122  13.3337  15.9779  23.9863  27.6623
    32.1399  36.0678

          k = 0.0582-0.1747 0.2912 (   481 PWs)   bands (ev):

     8.3933  10.6948  11.5725  12.1037  12.7786  13.8719  27.9356  31.3644
    34.5208  36.3417

          k = 0.5241 0.0582 0.0582 (   469 PWs)   bands (ev):

     9.1667   9.5650  13.0298  13.5501  14.2102  15.0885  25.6348  27.7419
    28.3419  33.8004

          k =-0.0582-0.5241 0.6406 (   478 PWs)   bands (ev):

     9.3723   9.7274  12.6264  13.5653  14.4237  18.8114  21.9731  25.1052
    27.1757  35.5692

          k = 0.0582-0.4076 0.5241 (   477 PWs)   bands (ev):

     9.9456  10.5720  11.4126  12.7453  13.9701  18.9831  21.4501  24.9285
    29.5907  35.4272

          k = 0.1747-0.2912 0.4076 (   475 PWs)   bands (ev):

     9.1292  11.0602  11.7777  12.1262  13.9804  15.9932  21.3468  30.7985
    31.9907  34.5169

          k =-0.6406 0.0582 0.0582 (   470 PWs)   bands (ev):

     8.9988   9.3290  13.9093  13.9840  14.4714  17.2826  22.5170  26.1480
    27.1375  33.9681

          k =-0.5241 0.1747-0.0582 (   474 PWs)   bands (ev):

     9.5332   9.9580  11.8726  13.2831  14.1121  16.4480  23.9966  27.2663
    28.4719  35.3792

          k =-0.4076 0.0582 0.0582 (   478 PWs)   bands (ev):

     9.0144   9.9897  11.9570  12.8662  13.5412  13.8344  28.3495  30.4078
    31.1260  33.7921

          k = 0.1747 0.1747 0.1747 (   483 PWs)   bands (ev):

     7.8031  11.2115  11.6525  11.6525  13.1341  13.1341  27.6378  33.3906
    36.6426  36.6426

          k = 0.2912 0.2912 0.0582 (   481 PWs)   bands (ev):

     9.0855  10.8835  11.4275  12.0596  12.7893  14.7819  25.7698  29.4731
    34.2623  36.9447

          k =-0.2912-0.2912 0.6406 (   479 PWs)   bands (ev):

     9.8999  10.8263  11.3859  12.3807  13.5048  17.2797  22.5424  26.0379
    32.8623  33.6836

          k =-0.1747-0.1747 0.5241 (   477 PWs)   bands (ev):

     9.5022  10.4560  11.7121  12.6040  14.3180  17.2461  21.7132  27.9764
    30.1737  33.8170

          k = 0.4076 0.1747 0.1747 (   477 PWs)   bands (ev):

     9.1684  10.9794  11.3590  12.0696  14.1737  14.9724  23.4371  31.5768
    31.7843  33.5836

          k =-0.1747-0.4076 0.7570 (   482 PWs)   bands (ev):

    10.1294  10.4771  11.0068  12.8761  13.9596  17.7891  22.5890  26.0493
    28.8393  36.9914

          k =-0.0582-0.2912 0.6406 (   476 PWs)   bands (ev):

     9.9569  10.3889  11.3641  12.9480  14.4050  20.0782  21.7753  24.1701
    26.7377  37.9760

          k =-0.7570 0.1747 0.1747 (   476 PWs)   bands (ev):

     9.5138  10.1829  12.1690  13.1466  14.1597  19.7440  20.7566  24.5819
    29.3493  34.2269

          k = 0.2912 0.2912 0.2912 (   477 PWs)   bands (ev):

     8.5881  11.3722  11.3722  13.8149  14.0455  14.0455  21.0553  31.9386
    34.7138  34.7138

          k =-0.2912-0.2912 0.8735 (   475 PWs)   bands (ev):

     9.2799  10.9343  11.8564  12.3042  13.9952  17.4558  19.7921  29.4918
    33.0083  33.0601

     the Fermi energy is    16.1047 ev

!    total energy              =     -66.87282750 Ry
     estimated scf accuracy    <          2.0E-11 Ry
     smearing contrib. (-TS)   =      -0.00029888 Ry
     internal energy E=F+TS    =     -66.87252861 Ry

     The total energy is F=E-TS. E is the sum of the following terms:
     one-electron contribution =       8.98229036 Ry
     hartree contribution      =       7.13559224 Ry
     xc contribution           =     -10.46155346 Ry
     ewald contribution        =     -72.52885775 Ry

     convergence has been achieved in   7 iterations


     Computing stress (Cartesian axis) and pressure

          total   stress  (Ry/bohr**3)                   (kbar)     P=        0.10
   0.00000069   0.00000000  -0.00000000            0.10        0.00       -0.00
   0.00000000   0.00000069   0.00000000            0.00        0.10        0.00
  -0.00000000   0.00000000   0.00000069           -0.00        0.00        0.10

     Message from routine punch:
     Nothing written, as per user request (disk_io='none')

     init_run     :      1.19s CPU      1.30s WALL (       2 calls)
     electrons    :      6.65s CPU      7.50s WALL (       4 calls)
     update_pot   :      0.01s CPU      0.01s WALL (       2 calls)
     stress       :      0.93s CPU      1.20s WALL (       4 calls)

     Called by init_run:
     wfcinit      :      0.18s CPU      0.20s WALL (       2 calls)
     potinit      :      0.23s CPU      0.26s WALL (       2 calls)
     hinit0       :      0.68s CPU      0.73s WALL (       2 calls)

     Called by electrons:
     c_bands      :      5.10s CPU      5.73s WALL (      20 calls)
     sum_band     :      1.22s CPU      1.37s WALL (      20 calls)
     v_of_rho     :      0.04s CPU      0.04s WALL (      21 calls)
     newd         :      0.35s CPU      0.41s WALL (      21 calls)
     mix_rho      :      0.01s CPU      0.01s WALL (      20 calls)

     Called by c_bands:
     init_us_2    :      0.12s CPU      0.14s WALL (    1288 calls)
     cegterg      :      4.92s CPU      5.52s WALL (     560 calls)

     Called by *egterg:
     cdiaghg      :      0.31s CPU      0.35s WALL (    1774 calls)
     h_psi        :      4.33s CPU      4.88s WALL (    1970 calls)
     s_psi        :      0.03s CPU      0.03s WALL (    1970 calls)
     g_psi        :      0.01s CPU      0.02s WALL (    1354 calls)

     Called by h_psi:
     h_psi:calbec :      0.13s CPU      0.16s WALL (    1970 calls)
     vloc_psi     :      4.12s CPU      4.64s WALL (    1970 calls)
     add_vuspsi   :      0.04s CPU      0.05s WALL (    1970 calls)

     General routines
     calbec       :      0.25s CPU      0.33s WALL (    3986 calls)
     fft          :      0.21s CPU      0.22s WALL (     131 calls)
     ffts         :      0.18s CPU      0.19s WALL (      41 calls)
     fftw         :      4.24s CPU      4.79s WALL (   35830 calls)
     interpolate  :      0.19s CPU      0.20s WALL (      21 calls)

     Parallel routines

     PWSCF        :      8.94s CPU     10.22s WALL


   This run was terminated on:  17:33:32  21Oct2025            

=------------------------------------------------------------------------------=
   JOB DONE.
=------------------------------------------------------------------------------=
