Header of the LAMMPS data file 

4 atoms 
1 atom types

0.0 4.046  xlo xhi
0.0 4.046  ylo yhi
0.0 4.046  zlo zhi

Masses 

1  26.9815385

Atoms # atomic 

1 1 0.00000 0.00000 0.00000 
2 1 0.00000 2.02300 2.02300 
3 1 2.02300 0.00000 2.02300 
4 1 2.02300 2.02300 0.00000 
