LAMMPS (22 Jul 2025 - Update 1)
# ---------- 1. Initialize simulation ---------------------
units metal
atom_style atomic
dimension  3
boundary   p p p
read_data /home/bond/Work/Lab1/Vacancy/EAM/relax/6/lammps.data
Reading data file ...
  orthogonal box = (0 0 0) to (24.489929 24.489929 24.489929)
  1 by 1 by 1 MPI processor grid
  reading atoms ...
  863 atoms
  read_data CPU = 0.003 seconds

# ---------- 2. Specify interatomic potential ---------------------
pair_style eam/alloy
pair_coeff * * /home/bond/Software/LAMMPS/lammps-22Jul2025/potentials/Al_zhou.eam.alloy  Al
Reading eam/alloy potential file /home/bond/Software/LAMMPS/lammps-22Jul2025/potentials/Al_zhou.eam.alloy with DATE: 2007-10-12

# pair_style lj/cut 4.5
# pair_coeff 1 1 0.392 2.620 4.5

# ---------- 3. Run single point calculation  ---------------------
thermo_style custom step pe lx ly lz press pxx pyy pzz
run 0
WARNING: No fixes with time integration, atoms won't move
For more information see https://docs.lammps.org/err0028 (../verlet.cpp:60)
Neighbor list info ...
  update: every = 1 steps, delay = 0 steps, check = yes
  max neighbors/atom: 2000, page size: 100000
  master list distance cutoff = 12.1025
  ghost atom cutoff = 12.1025
  binsize = 6.05125, bins = 5 5 5
  1 neighbor lists, perpetual/occasional/extra = 1 0 0
  (1) pair eam/alloy, perpetual
      attributes: half, newton on
      pair build: half/bin/atomonly/newton
      stencil: half/bin/3d
      bin: standard
Per MPI rank memory allocation (min/avg/max) = 3.946 | 3.946 | 3.946 Mbytes
   Step         PotEng           Lx             Ly             Lz           Press           Pxx            Pyy            Pzz      
         0  -3088.7318      24.489929      24.489929      24.489929     -329.53859     -329.53876     -329.53825     -329.53876    
Loop time of 1.796e-06 on 1 procs for 0 steps with 863 atoms

111.4% CPU use with 1 MPI tasks x no OpenMP threads

MPI task timing breakdown:
Section |  min time  |  avg time  |  max time  |%varavg| %total
---------------------------------------------------------------
Pair    | 0          | 0          | 0          |   0.0 |  0.00
Neigh   | 0          | 0          | 0          |   0.0 |  0.00
Comm    | 0          | 0          | 0          |   0.0 |  0.00
Output  | 0          | 0          | 0          |   0.0 |  0.00
Modify  | 0          | 0          | 0          |   0.0 |  0.00
Other   |            | 1.796e-06  |            |       |100.00

Nlocal:            863 ave         863 max         863 min
Histogram: 1 0 0 0 0 0 0 0 0 0
Nghost:           5212 ave        5212 max        5212 min
Histogram: 1 0 0 0 0 0 0 0 0 0
Neighs:         184468 ave      184468 max      184468 min
Histogram: 1 0 0 0 0 0 0 0 0 0

Total # of neighbors = 184468
Ave neighs/atom = 213.75203
Neighbor list builds = 0
Dangerous builds = 0
# -- include optimization of the unit cell parameter
fix 1 all box/relax iso 0.0 vmax 0.001

# -- enable optimization of atomic positions (and the cell)
min_style cg
minimize 1e-10 1e-10 1000 10000
WARNING: Energy due to 1 extra global DOFs will be included in minimizer energies
 (../min.cpp:222)
Per MPI rank memory allocation (min/avg/max) = 5.071 | 5.071 | 5.071 Mbytes
   Step         PotEng           Lx             Ly             Lz           Press           Pxx            Pyy            Pzz      
         0  -3088.7318      24.489929      24.489929      24.489929     -329.53859     -329.53876     -329.53825     -329.53876    
        14  -3088.8225      24.486502      24.486502      24.486502      0.68371853     0.68370168     0.68375223     0.68370168   
Loop time of 0.266306 on 1 procs for 14 steps with 863 atoms

100.0% CPU use with 1 MPI tasks x no OpenMP threads

Minimization stats:
  Stopping criterion = energy tolerance
  Energy initial, next-to-last, final = 
     -3088.73180650312  -3088.82250951636  -3088.82250974149
  Force two-norm initial, final = 9.0969862 0.059870555
  Force max component initial, final = 9.0631626 0.018798764
  Final line search alpha, max atom move = 0.0059511254 0.0001118738
  Iterations, force evaluations = 14 28

MPI task timing breakdown:
Section |  min time  |  avg time  |  max time  |%varavg| %total
---------------------------------------------------------------
Pair    | 0.26176    | 0.26176    | 0.26176    |   0.0 | 98.29
Neigh   | 0          | 0          | 0          |   0.0 |  0.00
Comm    | 0.00085414 | 0.00085414 | 0.00085414 |   0.0 |  0.32
Output  | 0          | 0          | 0          |   0.0 |  0.00
Modify  | 0          | 0          | 0          |   0.0 |  0.00
Other   |            | 0.003695   |            |       |  1.39

Nlocal:            863 ave         863 max         863 min
Histogram: 1 0 0 0 0 0 0 0 0 0
Nghost:           5212 ave        5212 max        5212 min
Histogram: 1 0 0 0 0 0 0 0 0 0
Neighs:         184468 ave      184468 max      184468 min
Histogram: 1 0 0 0 0 0 0 0 0 0

Total # of neighbors = 184468
Ave neighs/atom = 213.75203
Neighbor list builds = 0
Dangerous builds = 0

# ---- 4. Define and print useful variables -------------
variable natoms equal "count(all)"
variable totenergy equal "pe"
variable length equal "lx"

print "Total energy (eV) = ${totenergy}"
Total energy (eV) = -3088.82250974149
print "Number of atoms = ${natoms}"
Number of atoms = 863
print "Lattice constant (Angstoms) = ${length}"
Lattice constant (Angstoms) = 24.486502285421
Total wall time: 0:00:00
