
     Program PWSCF v.7.4.1 starts on 20Oct2025 at 22: 9:38 

     This program is part of the open-source Quantum ESPRESSO suite
     for quantum simulation of materials; please cite
         "P. Giannozzi et al., J. Phys.:Condens. Matter 21 395502 (2009);
         "P. Giannozzi et al., J. Phys.:Condens. Matter 29 465901 (2017);
         "P. Giannozzi et al., J. Chem. Phys. 152 154105 (2020);
          URL http://www.quantum-espresso.org", 
     in publications or presentations arising from this work. More details at
     http://www.quantum-espresso.org/quote

     Parallel version (MPI), running on     2 processors

     MPI processes distributed on     1 nodes
     285 MiB available memory on the printing compute node when the environment starts

     Waiting for input...
     Reading input from standard input
Warning: card &CELL ignored
Warning: card / ignored

     Current dimensions of program PWSCF are:
     Max number of different atomic species (ntypx) = 10
     Max number of k-points (npk) =  40000
     Max angular momentum in pseudopotentials (lmaxx) =  4
     file Fe.pbe-nd-rrkjus.UPF: wavefunction(s)  4S renormalized
     Message from routine setup:
     using ibrav=0 with symmetry is DISCOURAGED, use correct ibrav instead

     R & G space division:  proc/nbgrp/npool/nimage =       2
     Subspace diagonalization in iterative solution of the eigenvalue problem:
     a serial algorithm will be used


     Parallelization info
     --------------------
     sticks:   dense  smooth     PW     G-vecs:    dense   smooth      PW
     Min         205      82     41                 2616      644     229
     Max         206      83     42                 2617      645     230
     Sum         411     165     83                 5233     1289     459

     Using Slab Decomposition



     bravais-lattice index     =            0
     lattice parameter (alat)  =       4.2550  a.u.
     unit-cell volume          =      59.3044 (a.u.)^3
     number of atoms/cell      =            1
     number of atomic types    =            1
     number of electrons       =         8.00
     number of Kohn-Sham states=            8
     kinetic-energy cutoff     =      30.0000  Ry
     charge density cutoff     =     300.0000  Ry
     scf convergence threshold =      1.0E-07
     mixing beta               =       0.5000
     number of iterations used =            8  plain     mixing
     Exchange-correlation=  SLA  PW   PBE  PBE
                           (   1   4   3   4   0   0   0)

     celldm(1)=   4.255032  celldm(2)=   0.000000  celldm(3)=   0.000000
     celldm(4)=   0.000000  celldm(5)=   0.000000  celldm(6)=   0.000000

     crystal axes: (cart. coord. in units of alat)
               a(1) = (  -0.577350   0.577350   0.577350 )  
               a(2) = (   0.577350  -0.577350   0.577350 )  
               a(3) = (   0.577350   0.577350  -0.577350 )  

     reciprocal axes: (cart. coord. in units 2 pi/alat)
               b(1) = (  0.000000  0.866025  0.866025 )  
               b(2) = (  0.866025  0.000000  0.866025 )  
               b(3) = (  0.866025  0.866025  0.000000 )  


     PseudoPot. # 1 for Fe read from file:
     /home/bond/Software/QE/qe-7.4.1/pseudo/Fe.pbe-nd-rrkjus.UPF
     MD5 check sum: 398036227a04b607635f6f5e8dfd8242
     Pseudo is Ultrasoft + core correction, Zval =  8.0
     Generated by new atomic code, or converted to UPF format
     Using radial grid of  957 points,  6 beta functions with: 
                l(1) =   0
                l(2) =   0
                l(3) =   1
                l(4) =   1
                l(5) =   2
                l(6) =   2
     Q(r) pseudized with 0 coefficients 


     atomic species   valence    mass     pseudopotential
     Fe                8.00    55.84500     Fe( 1.00)

     Starting magnetic structure 
     atomic species   magnetization
     Fe              0.700

     48 Sym. Ops., with inversion, found



   Cartesian axes

     site n.     atom                  positions (alat units)
         1        Fe     tau(   1) = (   0.0000000   0.0000000   0.0000000  )

     number of k points=   104  Methfessel-Paxton smearing, width (Ry)=  0.0200

     Number of k-points >= 100: set verbosity='high' to print them.

     Dense  grid:     5233 G-vectors     FFT dimensions: (  24,  24,  24)

     Smooth grid:     1289 G-vectors     FFT dimensions: (  15,  15,  15)

     Estimated max dynamical RAM per process >      14.20 MB

     Estimated total dynamical RAM >      28.40 MB

     Check: negative core charge=   -0.000001
     Generating pointlists ...
     new r_m :   0.4125 (alat units)  1.7552 (a.u.) for type    1

     Initial potential from superposition of free atoms

     starting charge       7.9994, renormalised to       8.0000
     Starting wfcs are    6 randomized atomic wfcs +    2 random wfcs

     total cpu time spent up to now is        0.9 secs

     Self-consistent Calculation

     iteration #  1     ecut=    30.00 Ry     beta= 0.50
     Davidson diagonalization with overlap
     ethr =  1.00E-02,  avg # of iterations =  4.5

     total cpu time spent up to now is        1.6 secs

     total energy              =     -55.64342322 Ry
     estimated scf accuracy    <       0.27992073 Ry

     total magnetization       =     2.68 Bohr mag/cell
     absolute magnetization    =     2.68 Bohr mag/cell

     iteration #  2     ecut=    30.00 Ry     beta= 0.50
     Davidson diagonalization with overlap
     ethr =  3.50E-03,  avg # of iterations =  1.5

     total cpu time spent up to now is        2.1 secs

     total energy              =     -55.72604841 Ry
     estimated scf accuracy    <       0.02998412 Ry

     total magnetization       =     2.51 Bohr mag/cell
     absolute magnetization    =     2.51 Bohr mag/cell

     iteration #  3     ecut=    30.00 Ry     beta= 0.50
     Davidson diagonalization with overlap
     ethr =  3.75E-04,  avg # of iterations =  1.2

     total cpu time spent up to now is        2.6 secs

     total energy              =     -55.74766089 Ry
     estimated scf accuracy    <       0.01547372 Ry

     total magnetization       =     2.26 Bohr mag/cell
     absolute magnetization    =     2.28 Bohr mag/cell

     iteration #  4     ecut=    30.00 Ry     beta= 0.50
     Davidson diagonalization with overlap
     ethr =  1.93E-04,  avg # of iterations =  1.5

     total cpu time spent up to now is        3.1 secs

     total energy              =     -55.75537268 Ry
     estimated scf accuracy    <       0.00215558 Ry

     total magnetization       =     1.90 Bohr mag/cell
     absolute magnetization    =     1.99 Bohr mag/cell

     iteration #  5     ecut=    30.00 Ry     beta= 0.50
     Davidson diagonalization with overlap
     ethr =  2.69E-05,  avg # of iterations =  4.4

     total cpu time spent up to now is        3.8 secs

     total energy              =     -55.75609775 Ry
     estimated scf accuracy    <       0.00288927 Ry

     total magnetization       =     1.84 Bohr mag/cell
     absolute magnetization    =     1.92 Bohr mag/cell

     iteration #  6     ecut=    30.00 Ry     beta= 0.50
     Davidson diagonalization with overlap
     ethr =  2.69E-05,  avg # of iterations =  1.5

     total cpu time spent up to now is        4.3 secs

     total energy              =     -55.75673915 Ry
     estimated scf accuracy    <       0.00003793 Ry

     total magnetization       =     1.83 Bohr mag/cell
     absolute magnetization    =     1.90 Bohr mag/cell

     iteration #  7     ecut=    30.00 Ry     beta= 0.50
     Davidson diagonalization with overlap
     ethr =  4.74E-07,  avg # of iterations =  5.2

     total cpu time spent up to now is        5.3 secs

     total energy              =     -55.75681493 Ry
     estimated scf accuracy    <       0.00010567 Ry

     total magnetization       =     1.79 Bohr mag/cell
     absolute magnetization    =     1.86 Bohr mag/cell

     iteration #  8     ecut=    30.00 Ry     beta= 0.50
     Davidson diagonalization with overlap
     ethr =  4.74E-07,  avg # of iterations =  2.0

     total cpu time spent up to now is        6.0 secs

     total energy              =     -55.75683391 Ry
     estimated scf accuracy    <       0.00000237 Ry

     total magnetization       =     1.80 Bohr mag/cell
     absolute magnetization    =     1.86 Bohr mag/cell

     iteration #  9     ecut=    30.00 Ry     beta= 0.50
     Davidson diagonalization with overlap
     ethr =  2.96E-08,  avg # of iterations =  3.3

     total cpu time spent up to now is        6.6 secs

     total energy              =     -55.75683509 Ry
     estimated scf accuracy    <       0.00000087 Ry

     total magnetization       =     1.79 Bohr mag/cell
     absolute magnetization    =     1.86 Bohr mag/cell

     iteration # 10     ecut=    30.00 Ry     beta= 0.50
     Davidson diagonalization with overlap
     ethr =  1.08E-08,  avg # of iterations =  2.1

     Magnetic moment per site  (integrated on atomic sphere of radius R)
     atom   1 (R=0.413)  charge=  6.2872  magn=  1.8090

     total cpu time spent up to now is        7.2 secs

     End of self-consistent calculation

     Number of k-points >= 100: set verbosity='high' to print the bands.

     the Fermi energy is    18.8738 ev

!    total energy              =     -55.75683551 Ry
     estimated scf accuracy    <       0.00000001 Ry
     smearing contrib. (-TS)   =      -0.00029221 Ry
     internal energy E=F+TS    =     -55.75654330 Ry

     The total energy is F=E-TS. E is the sum of the following terms:
     one-electron contribution =      13.08449799 Ry
     hartree contribution      =       5.19604238 Ry
     xc contribution           =     -26.63279059 Ry
     ewald contribution        =     -47.40429309 Ry

     total magnetization       =     1.80 Bohr mag/cell
     absolute magnetization    =     1.86 Bohr mag/cell

     convergence has been achieved in  10 iterations

     Forces acting on atoms (cartesian axes, Ry/au):

     atom    1 type  1   force =     0.00000000    0.00000000    0.00000000

     Total force =     0.000000     Total SCF correction =     0.000000


     Computing stress (Cartesian axis) and pressure

          total   stress  (Ry/bohr**3)                   (kbar)     P=      894.59
   0.00608131   0.00000000   0.00000000          894.59        0.00        0.00
   0.00000000   0.00608131   0.00000000            0.00      894.59        0.00
   0.00000000   0.00000000   0.00608131            0.00        0.00      894.59

     Message from routine punch:
     Nothing written, as per user request (disk_io='none')

     init_run     :      0.55s CPU      0.59s WALL (       1 calls)
     electrons    :      5.44s CPU      6.23s WALL (       1 calls)
     forces       :      0.05s CPU      0.05s WALL (       1 calls)
     stress       :      0.25s CPU      0.26s WALL (       1 calls)

     Called by init_run:
     wfcinit      :      0.16s CPU      0.18s WALL (       1 calls)
     potinit      :      0.04s CPU      0.04s WALL (       1 calls)
     hinit0       :      0.34s CPU      0.34s WALL (       1 calls)

     Called by electrons:
     c_bands      :      4.40s CPU      5.08s WALL (      10 calls)
     sum_band     :      0.80s CPU      0.89s WALL (      10 calls)
     v_of_rho     :      0.11s CPU      0.13s WALL (      11 calls)
     newd         :      0.12s CPU      0.13s WALL (      11 calls)
     mix_rho      :      0.01s CPU      0.01s WALL (      10 calls)

     Called by c_bands:
     init_us_2    :      0.15s CPU      0.17s WALL (    4784 calls)
     cegterg      :      4.07s CPU      4.70s WALL (    2080 calls)

     Called by *egterg:
     cdiaghg      :      0.69s CPU      0.80s WALL (    7750 calls)
     h_psi        :      2.81s CPU      3.22s WALL (    7958 calls)
     s_psi        :      0.06s CPU      0.08s WALL (    7958 calls)
     g_psi        :      0.02s CPU      0.02s WALL (    5670 calls)

     Called by h_psi:
     h_psi:calbec :      0.19s CPU      0.21s WALL (    7958 calls)
     vloc_psi     :      2.48s CPU      2.84s WALL (    7958 calls)
     add_vuspsi   :      0.07s CPU      0.08s WALL (    7958 calls)

     General routines
     calbec       :      0.26s CPU      0.30s WALL (   13574 calls)
     fft          :      0.21s CPU      0.22s WALL (     313 calls)
     ffts         :      0.02s CPU      0.02s WALL (      42 calls)
     fftw         :      2.32s CPU      2.67s WALL (  104630 calls)
     interpolate  :      0.02s CPU      0.02s WALL (      22 calls)

     Parallel routines

     PWSCF        :      6.53s CPU      7.47s WALL


   This run was terminated on:  22: 9:45  20Oct2025            

=------------------------------------------------------------------------------=
   JOB DONE.
=------------------------------------------------------------------------------=
