
     Program PWSCF v.7.4.1 starts on 21Oct2025 at  0:52:45 

     This program is part of the open-source Quantum ESPRESSO suite
     for quantum simulation of materials; please cite
         "P. Giannozzi et al., J. Phys.:Condens. Matter 21 395502 (2009);
         "P. Giannozzi et al., J. Phys.:Condens. Matter 29 465901 (2017);
         "P. Giannozzi et al., J. Chem. Phys. 152 154105 (2020);
          URL http://www.quantum-espresso.org", 
     in publications or presentations arising from this work. More details at
     http://www.quantum-espresso.org/quote

     Parallel version (MPI), running on     2 processors

     MPI processes distributed on     1 nodes
     325 MiB available memory on the printing compute node when the environment starts

     Waiting for input...
     Reading input from standard input
Warning: card &CELL ignored
Warning: card / ignored

     Current dimensions of program PWSCF are:
     Max number of different atomic species (ntypx) = 10
     Max number of k-points (npk) =  40000
     Max angular momentum in pseudopotentials (lmaxx) =  4
     file Fe.pbe-nd-rrkjus.UPF: wavefunction(s)  4S renormalized
     Message from routine find_sym:
     Not a group! Trying with lower acceptance parameter...
     Message from routine find_sym:
     Still not a group! symmetry disabled

     R & G space division:  proc/nbgrp/npool/nimage =       2
     Subspace diagonalization in iterative solution of the eigenvalue problem:
     a serial algorithm will be used


     Parallelization info
     --------------------
     sticks:   dense  smooth     PW     G-vecs:    dense   smooth      PW
     Min         402     156     53                16016     4052     724
     Max         403     157     56                16023     4061     725
     Sum         805     313    109                32039     8113    1449

     Using Slab Decomposition



     bravais-lattice index     =            0
     lattice parameter (alat)  =       6.2361  a.u.
     unit-cell volume          =     364.8118 (a.u.)^3
     number of atoms/cell      =            2
     number of atomic types    =            1
     number of electrons       =        16.00
     number of Kohn-Sham states=           12
     kinetic-energy cutoff     =      30.0000  Ry
     charge density cutoff     =     300.0000  Ry
     scf convergence threshold =      1.0E-07
     mixing beta               =       0.5000
     number of iterations used =            8  plain     mixing
     Exchange-correlation=  SLA  PW   PBE  PBE
                           (   1   4   3   4   0   0   0)

     celldm(1)=   6.236096  celldm(2)=   0.000000  celldm(3)=   0.000000
     celldm(4)=   0.000000  celldm(5)=   0.000000  celldm(6)=   0.000000

     crystal axes: (cart. coord. in units of alat)
               a(1) = (   1.000000   0.000000   0.000000 )  
               a(2) = (  -0.500000   0.866025   0.000000 )  
               a(3) = (   0.000000   0.000000   1.737000 )  

     reciprocal axes: (cart. coord. in units 2 pi/alat)
               b(1) = (  1.000000  0.577350 -0.000000 )  
               b(2) = (  0.000000  1.154701  0.000000 )  
               b(3) = (  0.000000 -0.000000  0.575705 )  


     PseudoPot. # 1 for Fe read from file:
     /home/bond/Software/QE/qe-7.4.1/pseudo/Fe.pbe-nd-rrkjus.UPF
     MD5 check sum: 398036227a04b607635f6f5e8dfd8242
     Pseudo is Ultrasoft + core correction, Zval =  8.0
     Generated by new atomic code, or converted to UPF format
     Using radial grid of  957 points,  6 beta functions with: 
                l(1) =   0
                l(2) =   0
                l(3) =   1
                l(4) =   1
                l(5) =   2
                l(6) =   2
     Q(r) pseudized with 0 coefficients 


     atomic species   valence    mass     pseudopotential
     Fe                8.00    55.84500     Fe( 1.00)

     Starting magnetic structure 
     atomic species   magnetization
     Fe              0.700

     No symmetry found



   Cartesian axes

     site n.     atom                  positions (alat units)
         1        Fe     tau(   1) = (   0.0000000   0.0000000   0.0000000  )
         2        Fe     tau(   2) = (   0.0000000   0.5773515   0.8685000  )

     number of k points=   688  Methfessel-Paxton smearing, width (Ry)=  0.0200

     Number of k-points >= 100: set verbosity='high' to print them.

     Dense  grid:    32039 G-vectors     FFT dimensions: (  36,  36,  60)

     Smooth grid:     8113 G-vectors     FFT dimensions: (  24,  24,  40)

     Estimated max dynamical RAM per process >     194.37 MB

     Estimated total dynamical RAM >     388.75 MB

     Check: negative core charge=   -0.000029
     Generating pointlists ...
     new r_m :   0.4125 (alat units)  2.5724 (a.u.) for type    1

     Initial potential from superposition of free atoms

     starting charge      15.9987, renormalised to      16.0000
     Starting wfcs are   12 randomized atomic wfcs

     total cpu time spent up to now is       13.3 secs

     Self-consistent Calculation

     iteration #  1     ecut=    30.00 Ry     beta= 0.50
     Davidson diagonalization with overlap
     ethr =  1.00E-02,  avg # of iterations =  3.4

     total cpu time spent up to now is       49.0 secs

     total energy              =    -110.99452241 Ry
     estimated scf accuracy    <       0.66946663 Ry

     total magnetization       =     7.91 Bohr mag/cell
     absolute magnetization    =     7.96 Bohr mag/cell

     iteration #  2     ecut=    30.00 Ry     beta= 0.50
     Davidson diagonalization with overlap
     ethr =  4.18E-03,  avg # of iterations =  2.7

     total cpu time spent up to now is       87.0 secs

     total energy              =    -111.20595748 Ry
     estimated scf accuracy    <       0.41621380 Ry

     total magnetization       =     6.33 Bohr mag/cell
     absolute magnetization    =     6.35 Bohr mag/cell

     iteration #  3     ecut=    30.00 Ry     beta= 0.50
     Davidson diagonalization with overlap
     ethr =  2.60E-03,  avg # of iterations =  1.4

     total cpu time spent up to now is      114.7 secs

     total energy              =    -111.28080093 Ry
     estimated scf accuracy    <       0.00762603 Ry

     total magnetization       =     7.03 Bohr mag/cell
     absolute magnetization    =     7.11 Bohr mag/cell

     iteration #  4     ecut=    30.00 Ry     beta= 0.50
     Davidson diagonalization with overlap
     ethr =  4.77E-05,  avg # of iterations =  5.1

     total cpu time spent up to now is      149.3 secs

     total energy              =    -111.28996874 Ry
     estimated scf accuracy    <       0.03607504 Ry

     total magnetization       =     6.76 Bohr mag/cell
     absolute magnetization    =     7.06 Bohr mag/cell

     iteration #  5     ecut=    30.00 Ry     beta= 0.50
     Davidson diagonalization with overlap
     ethr =  4.77E-05,  avg # of iterations =  1.0

     total cpu time spent up to now is      169.7 secs

     total energy              =    -111.29218334 Ry
     estimated scf accuracy    <       0.01120000 Ry

     total magnetization       =     6.74 Bohr mag/cell
     absolute magnetization    =     7.05 Bohr mag/cell

     iteration #  6     ecut=    30.00 Ry     beta= 0.50
     Davidson diagonalization with overlap
     ethr =  4.77E-05,  avg # of iterations =  1.9

     total cpu time spent up to now is      193.9 secs

     total energy              =    -111.29653622 Ry
     estimated scf accuracy    <       0.00635870 Ry

     total magnetization       =     6.37 Bohr mag/cell
     absolute magnetization    =     6.88 Bohr mag/cell

     iteration #  7     ecut=    30.00 Ry     beta= 0.50
     Davidson diagonalization with overlap
     ethr =  3.97E-05,  avg # of iterations =  1.0

     total cpu time spent up to now is      214.1 secs

     total energy              =    -111.29671937 Ry
     estimated scf accuracy    <       0.00127975 Ry

     total magnetization       =     6.42 Bohr mag/cell
     absolute magnetization    =     6.94 Bohr mag/cell

     iteration #  8     ecut=    30.00 Ry     beta= 0.50
     Davidson diagonalization with overlap
     ethr =  8.00E-06,  avg # of iterations =  2.3

     total cpu time spent up to now is      237.9 secs

     total energy              =    -111.29709193 Ry
     estimated scf accuracy    <       0.00002801 Ry

     total magnetization       =     6.43 Bohr mag/cell
     absolute magnetization    =     6.98 Bohr mag/cell

     iteration #  9     ecut=    30.00 Ry     beta= 0.50
     Davidson diagonalization with overlap
     c_bands:  2 eigenvalues not converged
     ethr =  1.75E-07,  avg # of iterations =  5.1

     total cpu time spent up to now is      275.1 secs

     total energy              =    -111.29716438 Ry
     estimated scf accuracy    <       0.00004704 Ry

     total magnetization       =     6.43 Bohr mag/cell
     absolute magnetization    =     6.99 Bohr mag/cell

     iteration # 10     ecut=    30.00 Ry     beta= 0.50
     Davidson diagonalization with overlap
     ethr =  1.75E-07,  avg # of iterations =  1.3

     total cpu time spent up to now is      295.5 secs

     total energy              =    -111.29716820 Ry
     estimated scf accuracy    <       0.00001436 Ry

     total magnetization       =     6.43 Bohr mag/cell
     absolute magnetization    =     6.99 Bohr mag/cell

     iteration # 11     ecut=    30.00 Ry     beta= 0.50
     Davidson diagonalization with overlap
     ethr =  8.98E-08,  avg # of iterations =  3.7

     total cpu time spent up to now is      330.6 secs

     total energy              =    -111.29718484 Ry
     estimated scf accuracy    <       0.00003418 Ry

     total magnetization       =     6.43 Bohr mag/cell
     absolute magnetization    =     6.98 Bohr mag/cell

     iteration # 12     ecut=    30.00 Ry     beta= 0.50
     Davidson diagonalization with overlap
     ethr =  8.98E-08,  avg # of iterations =  1.9

     total cpu time spent up to now is      352.5 secs

     total energy              =    -111.29718779 Ry
     estimated scf accuracy    <       0.00000301 Ry

     total magnetization       =     6.43 Bohr mag/cell
     absolute magnetization    =     6.98 Bohr mag/cell

     iteration # 13     ecut=    30.00 Ry     beta= 0.50
     Davidson diagonalization with overlap
     ethr =  1.88E-08,  avg # of iterations =  3.5

     total cpu time spent up to now is      381.0 secs

     total energy              =    -111.29718844 Ry
     estimated scf accuracy    <       0.00000013 Ry

     total magnetization       =     6.43 Bohr mag/cell
     absolute magnetization    =     6.98 Bohr mag/cell

     iteration # 14     ecut=    30.00 Ry     beta= 0.50
     Davidson diagonalization with overlap
     ethr =  8.02E-10,  avg # of iterations =  7.4

     total cpu time spent up to now is      434.8 secs

     total energy              =    -111.29719986 Ry
     estimated scf accuracy    <       0.00000021 Ry

     total magnetization       =     6.43 Bohr mag/cell
     absolute magnetization    =     6.98 Bohr mag/cell

     iteration # 15     ecut=    30.00 Ry     beta= 0.50
     Davidson diagonalization with overlap
     ethr =  8.02E-10,  avg # of iterations =  1.0

     total cpu time spent up to now is      454.9 secs

     total energy              =    -111.29719983 Ry
     estimated scf accuracy    <       0.00000013 Ry

     total magnetization       =     6.43 Bohr mag/cell
     absolute magnetization    =     6.98 Bohr mag/cell

     iteration # 16     ecut=    30.00 Ry     beta= 0.50
     Davidson diagonalization with overlap
     ethr =  8.02E-10,  avg # of iterations =  2.0

     Magnetic moment per site  (integrated on atomic sphere of radius R)
     atom   1 (R=0.412)  charge=  7.0117  magn=  3.3408
     atom   2 (R=0.412)  charge=  7.0115  magn=  3.3410

     total cpu time spent up to now is      480.0 secs

     End of self-consistent calculation

     Number of k-points >= 100: set verbosity='high' to print the bands.

     the Fermi energy is     4.1418 ev

!    total energy              =    -111.29719986 Ry
     estimated scf accuracy    <       0.00000002 Ry
     smearing contrib. (-TS)   =      -0.00014426 Ry
     internal energy E=F+TS    =    -111.29705560 Ry

     The total energy is F=E-TS. E is the sum of the following terms:
     one-electron contribution =     -16.89150296 Ry
     hartree contribution      =      23.22668184 Ry
     xc contribution           =     -52.48210248 Ry
     ewald contribution        =     -65.15013201 Ry

     total magnetization       =     6.43 Bohr mag/cell
     absolute magnetization    =     6.98 Bohr mag/cell

     convergence has been achieved in  16 iterations

     Forces acting on atoms (cartesian axes, Ry/au):

     atom    1 type  1   force =     0.00000020   -0.00000016    0.00000412
     atom    2 type  1   force =    -0.00000020    0.00000016   -0.00000412

     Total force =     0.000006     Total SCF correction =     0.000009
     SCF correction compared to forces is large: reduce conv_thr to get better values


     Computing stress (Cartesian axis) and pressure

          total   stress  (Ry/bohr**3)                   (kbar)     P=     -201.98
  -0.00142862   0.00000001   0.00000000         -210.16        0.00        0.00
   0.00000001  -0.00142866   0.00000000            0.00     -210.16        0.00
   0.00000000   0.00000000  -0.00126180            0.00        0.00     -185.62

     Message from routine punch:
     Nothing written, as per user request (disk_io='none')

     init_run     :     10.94s CPU     13.09s WALL (       1 calls)
     electrons    :    428.28s CPU    466.74s WALL (       1 calls)
     forces       :      1.97s CPU      2.31s WALL (       1 calls)
     stress       :      8.36s CPU      8.96s WALL (       1 calls)

     Called by init_run:
     wfcinit      :      9.88s CPU     11.61s WALL (       1 calls)
     potinit      :      0.29s CPU      0.41s WALL (       1 calls)
     hinit0       :      0.57s CPU      0.78s WALL (       1 calls)

     Called by electrons:
     c_bands      :    371.75s CPU    403.92s WALL (      16 calls)
     sum_band     :     54.25s CPU     59.79s WALL (      16 calls)
     v_of_rho     :      1.00s CPU      1.16s WALL (      17 calls)
     newd         :      1.31s CPU      1.84s WALL (      17 calls)
     mix_rho      :      0.09s CPU      0.13s WALL (      16 calls)

     Called by c_bands:
     init_us_2    :      9.72s CPU     10.65s WALL (   48160 calls)
     cegterg      :    346.36s CPU    376.51s WALL (   22016 calls)

     Called by *egterg:
     cdiaghg      :     17.40s CPU     18.77s WALL (   83899 calls)
     h_psi        :    302.30s CPU    329.43s WALL (   85275 calls)
     s_psi        :      5.22s CPU      5.73s WALL (   85275 calls)
     g_psi        :      1.24s CPU      1.37s WALL (   61883 calls)

     Called by h_psi:
     h_psi:calbec :     12.07s CPU     13.13s WALL (   85275 calls)
     vloc_psi     :    282.16s CPU    307.52s WALL (   85275 calls)
     add_vuspsi   :      6.09s CPU      6.68s WALL (   85275 calls)

     General routines
     calbec       :     18.86s CPU     20.66s WALL (  130683 calls)
     fft          :      0.71s CPU      0.95s WALL (     463 calls)
     ffts         :      0.20s CPU      0.26s WALL (      66 calls)
     fftw         :    275.93s CPU    301.29s WALL ( 1748654 calls)
     interpolate  :      0.22s CPU      0.28s WALL (      34 calls)

     Parallel routines

     PWSCF        :   7m29.72s CPU   8m11.34s WALL


   This run was terminated on:   1: 0:56  21Oct2025            

=------------------------------------------------------------------------------=
   JOB DONE.
=------------------------------------------------------------------------------=
