
     Program PWSCF v.7.4.1 starts on 21Oct2025 at 12:46:17 

     This program is part of the open-source Quantum ESPRESSO suite
     for quantum simulation of materials; please cite
         "P. Giannozzi et al., J. Phys.:Condens. Matter 21 395502 (2009);
         "P. Giannozzi et al., J. Phys.:Condens. Matter 29 465901 (2017);
         "P. Giannozzi et al., J. Chem. Phys. 152 154105 (2020);
          URL http://www.quantum-espresso.org", 
     in publications or presentations arising from this work. More details at
     http://www.quantum-espresso.org/quote

     Parallel version (MPI), running on     2 processors

     MPI processes distributed on     1 nodes
     760 MiB available memory on the printing compute node when the environment starts

     Waiting for input...
     Reading input from standard input
Warning: card &CELL ignored
Warning: card / ignored

     Current dimensions of program PWSCF are:
     Max number of different atomic species (ntypx) = 10
     Max number of k-points (npk) =  40000
     Max angular momentum in pseudopotentials (lmaxx) =  4
     file O.pz-rrkjus.UPF: wavefunction(s)  2S renormalized
     Message from routine setup:
     using ibrav=0 with symmetry is DISCOURAGED, use correct ibrav instead

     R & G space division:  proc/nbgrp/npool/nimage =       2
     Subspace diagonalization in iterative solution of the eigenvalue problem:
     a serial algorithm will be used


     Parallelization info
     --------------------
     sticks:   dense  smooth     PW     G-vecs:    dense   smooth      PW
     Min         516     254     74                12286     4354     709
     Max         517     255     75                12287     4355     710
     Sum        1033     509    149                24573     8709    1419

     Using Slab Decomposition



     bravais-lattice index     =            0
     lattice parameter (alat)  =       7.3227  a.u.
     unit-cell volume          =     392.6555 (a.u.)^3
     number of atoms/cell      =            5
     number of atomic types    =            3
     number of electrons       =        44.00
     number of Kohn-Sham states=           22
     kinetic-energy cutoff     =      30.0000  Ry
     charge density cutoff     =     240.0000  Ry
     scf convergence threshold =      1.0E-07
     mixing beta               =       0.7000
     number of iterations used =            8  plain     mixing
     energy convergence thresh.=      1.0E-04
     force convergence thresh. =      1.0E-03
     Exchange-correlation= SLA  PZ   NOGX NOGC
                           (   1   1   0   0   0   0   0)
     nstep                     =           50


     celldm(1)=   7.322689  celldm(2)=   0.000000  celldm(3)=   0.000000
     celldm(4)=   0.000000  celldm(5)=   0.000000  celldm(6)=   0.000000

     crystal axes: (cart. coord. in units of alat)
               a(1) = (   1.000000   0.000000   0.000000 )  
               a(2) = (   0.000000   1.000000   0.000000 )  
               a(3) = (   0.000000   0.000000   1.000000 )  

     reciprocal axes: (cart. coord. in units 2 pi/alat)
               b(1) = (  1.000000  0.000000  0.000000 )  
               b(2) = (  0.000000  1.000000  0.000000 )  
               b(3) = (  0.000000  0.000000  1.000000 )  


     PseudoPot. # 1 for O  read from file:
     /home/bond/Software/QE/qe-7.4.1/pseudo/O.pz-rrkjus.UPF
     MD5 check sum: 24fb942a68ef5d262e498166c462ef4a
     Pseudo is Ultrasoft, Zval =  6.0
     Generated by new atomic code, or converted to UPF format
     Using radial grid of 1269 points,  4 beta functions with: 
                l(1) =   0
                l(2) =   0
                l(3) =   1
                l(4) =   1
     Q(r) pseudized with 0 coefficients 


     PseudoPot. # 2 for Pb read from file:
     /home/bond/Software/QE/qe-7.4.1/pseudo/Pb.pz-d-van.UPF
     MD5 check sum: 4e1e5920686a026ae26139ac417581ff
     Pseudo is Ultrasoft, Zval = 14.0
     Generated by new atomic code, or converted to UPF format
     Using radial grid of  899 points,  6 beta functions with: 
                l(1) =   0
                l(2) =   0
                l(3) =   1
                l(4) =   1
                l(5) =   2
                l(6) =   2
     Q(r) pseudized with  8 coefficients,  rinner =    1.000   1.000   1.000
                                                       1.000   1.000

     PseudoPot. # 3 for Ti read from file:
     /home/bond/Software/QE/qe-7.4.1/pseudo/Ti.pz-sp-van_ak.UPF
     MD5 check sum: 545d0e6e05332b8871a8093f427cb0ca
     Pseudo is Ultrasoft, Zval = 12.0
     Generated by new atomic code, or converted to UPF format
     Using radial grid of  851 points,  6 beta functions with: 
                l(1) =   0
                l(2) =   0
                l(3) =   1
                l(4) =   1
                l(5) =   2
                l(6) =   2
     Q(r) pseudized with  8 coefficients,  rinner =    1.000   1.000   1.000
                                                       1.000   1.000

     atomic species   valence    mass     pseudopotential
     O                 6.00    15.99900     O ( 1.00)
     Pb               14.00   207.20000     Pb( 1.00)
     Ti               12.00    47.86700     Ti( 1.00)

      8 Sym. Ops. (no inversion) found



   Cartesian axes

     site n.     atom                  positions (alat units)
         1        Pb     tau(   1) = (   0.0000000   0.0000000   0.0000000  )
         2        Ti     tau(   2) = (   0.5000000   0.5000000   0.5400000  )
         3        O      tau(   3) = (   0.0000000   0.5000000   0.5000000  )
         4        O      tau(   4) = (   0.5000000   0.0000000   0.5000000  )
         5        O      tau(   5) = (   0.5000000   0.5000000   0.0000000  )

     number of k points=     6
                       cart. coord. in units 2pi/alat
        k(    1) = (   0.1250000   0.1250000   0.1250000), wk =   0.2500000
        k(    2) = (   0.1250000   0.1250000   0.3750000), wk =   0.2500000
        k(    3) = (   0.1250000   0.3750000   0.3750000), wk =   0.5000000
        k(    4) = (   0.3750000   0.3750000   0.3750000), wk =   0.2500000
        k(    5) = (   0.3750000  -0.1250000   0.1250000), wk =   0.5000000
        k(    6) = (   0.3750000  -0.3750000   0.1250000), wk =   0.2500000

     Dense  grid:    24573 G-vectors     FFT dimensions: (  40,  40,  40)

     Smooth grid:     8709 G-vectors     FFT dimensions: (  25,  25,  25)

     Estimated max dynamical RAM per process >      51.19 MB

     Estimated total dynamical RAM >     102.38 MB

     Initial potential from superposition of free atoms

     starting charge      42.9982, renormalised to      44.0000
     Starting wfcs are   31 randomized atomic wfcs

     total cpu time spent up to now is        1.6 secs

     Self-consistent Calculation

     iteration #  1     ecut=    30.00 Ry     beta= 0.70
     Davidson diagonalization with overlap
     ethr =  1.00E-02,  avg # of iterations =  2.0

     total cpu time spent up to now is        2.0 secs

     total energy              =    -332.62743208 Ry
     estimated scf accuracy    <       1.08412170 Ry

     iteration #  2     ecut=    30.00 Ry     beta= 0.70
     Davidson diagonalization with overlap
     ethr =  2.46E-03,  avg # of iterations =  5.8

     total cpu time spent up to now is        2.5 secs

     total energy              =    -332.44803949 Ry
     estimated scf accuracy    <       3.68741714 Ry

     iteration #  3     ecut=    30.00 Ry     beta= 0.70
     Davidson diagonalization with overlap
     ethr =  2.46E-03,  avg # of iterations =  5.2

     total cpu time spent up to now is        3.0 secs

     total energy              =    -333.15512667 Ry
     estimated scf accuracy    <       0.20606938 Ry

     iteration #  4     ecut=    30.00 Ry     beta= 0.70
     Davidson diagonalization with overlap
     ethr =  4.68E-04,  avg # of iterations =  2.3

     total cpu time spent up to now is        3.3 secs

     total energy              =    -333.15404882 Ry
     estimated scf accuracy    <       0.05326274 Ry

     iteration #  5     ecut=    30.00 Ry     beta= 0.70
     Davidson diagonalization with overlap
     ethr =  1.21E-04,  avg # of iterations =  4.8

     total cpu time spent up to now is        3.7 secs

     total energy              =    -333.18014653 Ry
     estimated scf accuracy    <       0.02245524 Ry

     iteration #  6     ecut=    30.00 Ry     beta= 0.70
     Davidson diagonalization with overlap
     ethr =  5.10E-05,  avg # of iterations =  1.5

     total cpu time spent up to now is        4.1 secs

     total energy              =    -333.17713902 Ry
     estimated scf accuracy    <       0.01172651 Ry

     iteration #  7     ecut=    30.00 Ry     beta= 0.70
     Davidson diagonalization with overlap
     ethr =  2.67E-05,  avg # of iterations =  3.8

     total cpu time spent up to now is        4.5 secs

     total energy              =    -333.17944333 Ry
     estimated scf accuracy    <       0.00013644 Ry

     iteration #  8     ecut=    30.00 Ry     beta= 0.70
     Davidson diagonalization with overlap
     ethr =  3.10E-07,  avg # of iterations =  6.5

     total cpu time spent up to now is        4.9 secs

     total energy              =    -333.17965949 Ry
     estimated scf accuracy    <       0.00036931 Ry

     iteration #  9     ecut=    30.00 Ry     beta= 0.70
     Davidson diagonalization with overlap
     ethr =  3.10E-07,  avg # of iterations =  3.8

     total cpu time spent up to now is        5.3 secs

     total energy              =    -333.17965263 Ry
     estimated scf accuracy    <       0.00011956 Ry

     iteration # 10     ecut=    30.00 Ry     beta= 0.70
     Davidson diagonalization with overlap
     ethr =  2.72E-07,  avg # of iterations =  3.5

     total cpu time spent up to now is        5.7 secs

     total energy              =    -333.17965952 Ry
     estimated scf accuracy    <       0.00001958 Ry

     iteration # 11     ecut=    30.00 Ry     beta= 0.70
     Davidson diagonalization with overlap
     ethr =  4.45E-08,  avg # of iterations =  4.7

     total cpu time spent up to now is        6.1 secs

     total energy              =    -333.17966894 Ry
     estimated scf accuracy    <       0.00000423 Ry

     iteration # 12     ecut=    30.00 Ry     beta= 0.70
     Davidson diagonalization with overlap
     ethr =  9.61E-09,  avg # of iterations =  1.7

     total cpu time spent up to now is        6.5 secs

     total energy              =    -333.17966825 Ry
     estimated scf accuracy    <       0.00000242 Ry

     iteration # 13     ecut=    30.00 Ry     beta= 0.70
     Davidson diagonalization with overlap
     ethr =  5.51E-09,  avg # of iterations =  4.2

     total cpu time spent up to now is        6.9 secs

     End of self-consistent calculation

          k = 0.1250 0.1250 0.1250 (  1090 PWs)   bands (ev):

   -44.5255 -21.2314 -21.1290 -21.1279  -6.3239  -5.2857  -5.1928  -3.9849
    -3.9737  -3.9618  -3.7954  -3.7842   4.6355   7.2855   7.3393   8.0880
     8.9667   9.0799   9.6608   9.8361  10.0813  10.1755

          k = 0.1250 0.1250 0.3750 (  1095 PWs)   bands (ev):

   -44.5242 -21.2904 -21.1267 -21.1257  -5.8685  -5.1535  -5.0644  -4.0433
    -3.9804  -3.9563  -3.8825  -3.7671   3.8600   6.8211   7.1900   7.8610
     8.5133   8.5995   9.4458   9.8887  10.2075  10.9406

          k = 0.1250 0.3750 0.3750 (  1087 PWs)   bands (ev):

   -44.5229 -21.2868 -21.1826 -21.1241  -5.6555  -5.0587  -4.9139  -4.0168
    -3.9719  -3.9167  -3.8241  -3.6546   3.5213   6.6574   6.9961   7.1942
     7.5270   8.7420   9.3425   9.5500  10.0403  10.6752

          k = 0.3750 0.3750 0.3750 (  1082 PWs)   bands (ev):

   -44.5216 -21.2843 -21.1802 -21.1799  -5.3256  -5.1494  -5.0919  -3.9303
    -3.9176  -3.6423  -3.5704  -3.5438   4.1510   5.8888   5.9749   6.6985
     7.1398   7.1970   7.9909  10.5932  10.6561  10.7888

          k = 0.3750-0.1250 0.1250 (  1095 PWs)   bands (ev):

   -44.5242 -21.2292 -21.1863 -21.1263  -5.9376  -5.1424  -5.0371  -4.0381
    -3.9732  -3.9602  -3.8942  -3.7577   3.9017   6.9129   7.3738   7.8535
     8.4401   8.8100   9.2723   9.8965   9.9987  10.8443

          k = 0.3750-0.3750 0.1250 (  1087 PWs)   bands (ev):

   -44.5229 -21.2270 -21.1831 -21.1822  -5.7806  -4.9650  -4.8866  -4.0054
    -3.9676  -3.9053  -3.8196  -3.6992   3.5594   6.8547   6.9076   7.1491
     7.4574   8.6951   9.5024   9.5198  10.0229  10.7919

     highest occupied level (ev):    10.9406

!    total energy              =    -333.17966873 Ry
     estimated scf accuracy    <       0.00000002 Ry

     The total energy is the sum of the following terms:
     one-electron contribution =     -77.12569519 Ry
     hartree contribution      =      66.58203109 Ry
     xc contribution           =     -49.67506836 Ry
     ewald contribution        =    -272.96093627 Ry

     convergence has been achieved in  13 iterations

     Forces acting on atoms (cartesian axes, Ry/au):

     atom    1 type  2   force =     0.00000000    0.00000000    0.01761954
     atom    2 type  3   force =     0.00000000    0.00000000   -0.04635286
     atom    3 type  1   force =     0.00000000    0.00000000    0.00101881
     atom    4 type  1   force =     0.00000000    0.00000000    0.00101881
     atom    5 type  1   force =     0.00000000    0.00000000    0.02669569

     Total force =     0.026735     Total SCF correction =     0.000048


     Computing stress (Cartesian axis) and pressure

          total   stress  (Ry/bohr**3)                   (kbar)     P=        2.53
  -0.00007120   0.00000000   0.00000000          -10.47        0.00        0.00
   0.00000000  -0.00007120   0.00000000            0.00      -10.47        0.00
   0.00000000   0.00000000   0.00019406            0.00        0.00       28.55


     BFGS Geometry Optimization
     Energy error            =      6.4E-04 Ry
     Gradient error          =      2.7E-02 Ry/Bohr

     number of scf cycles    =   1
     number of bfgs steps    =   0

     energy             new  =    -333.1796687346 Ry

     new trust radius        =       0.0266956870 bohr
     new conv_thr            =       0.0000001000 Ry


ATOMIC_POSITIONS (angstrom)
Pb               0.0000000000        0.0000000000        0.0000000000    0   0   0
Ti               1.9375000000        1.9375000000        2.0925000000    0   0   0
O                0.0000000000        1.9375000000        1.9380391326
O                1.9375000000        0.0000000000        1.9380391326
O                1.9375000000        1.9375000000        0.0141267492


     Message from routine punch:
     Nothing written, as per user request (disk_io='none')
     NEW-OLD atomic charge density approx. for the potential

     total cpu time spent up to now is        8.4 secs

     Self-consistent Calculation

     iteration #  1     ecut=    30.00 Ry     beta= 0.70
     Davidson diagonalization with overlap
     ethr =  1.00E-06,  avg # of iterations =  5.7

     total cpu time spent up to now is        8.8 secs

     total energy              =    -333.18018920 Ry
     estimated scf accuracy    <       0.00015854 Ry

     iteration #  2     ecut=    30.00 Ry     beta= 0.70
     Davidson diagonalization with overlap
     ethr =  3.60E-07,  avg # of iterations =  5.0

     total cpu time spent up to now is        9.4 secs

     total energy              =    -333.18019428 Ry
     estimated scf accuracy    <       0.00019172 Ry

     iteration #  3     ecut=    30.00 Ry     beta= 0.70
     Davidson diagonalization with overlap
     ethr =  3.60E-07,  avg # of iterations =  4.5

     total cpu time spent up to now is        9.8 secs

     total energy              =    -333.18023840 Ry
     estimated scf accuracy    <       0.00002484 Ry

     iteration #  4     ecut=    30.00 Ry     beta= 0.70
     Davidson diagonalization with overlap
     ethr =  5.65E-08,  avg # of iterations =  3.2

     total cpu time spent up to now is       10.2 secs

     total energy              =    -333.18024162 Ry
     estimated scf accuracy    <       0.00000212 Ry

     iteration #  5     ecut=    30.00 Ry     beta= 0.70
     Davidson diagonalization with overlap
     ethr =  4.82E-09,  avg # of iterations =  5.2

     total cpu time spent up to now is       10.6 secs

     total energy              =    -333.18024300 Ry
     estimated scf accuracy    <       0.00000106 Ry

     iteration #  6     ecut=    30.00 Ry     beta= 0.70
     Davidson diagonalization with overlap
     ethr =  2.41E-09,  avg # of iterations =  3.0

     total cpu time spent up to now is       11.0 secs

     total energy              =    -333.18024295 Ry
     estimated scf accuracy    <       0.00000042 Ry

     iteration #  7     ecut=    30.00 Ry     beta= 0.70
     Davidson diagonalization with overlap
     ethr =  9.56E-10,  avg # of iterations =  4.7

     total cpu time spent up to now is       11.4 secs

     End of self-consistent calculation

          k = 0.1250 0.1250 0.1250 (  1090 PWs)   bands (ev):

   -44.5484 -21.2359 -21.1524 -21.1514  -6.3253  -5.2799  -5.1982  -3.9800
    -3.9702  -3.9583  -3.7913  -3.7815   4.6396   7.2885   7.3342   8.0845
     8.9894   9.0976   9.6862   9.8384  10.0742  10.1820

          k = 0.1250 0.1250 0.3750 (  1095 PWs)   bands (ev):

   -44.5471 -21.2948 -21.1502 -21.1492  -5.8745  -5.1437  -5.0707  -4.0388
    -3.9754  -3.9531  -3.8799  -3.7627   3.8703   6.8222   7.2035   7.8519
     8.5152   8.6249   9.4440   9.8927  10.2003  10.9389

          k = 0.1250 0.3750 0.3750 (  1087 PWs)   bands (ev):

   -44.5458 -21.2912 -21.2059 -21.1476  -5.6607  -5.0491  -4.9186  -4.0123
    -3.9675  -3.9128  -3.8205  -3.6530   3.5280   6.6709   6.9883   7.1934
     7.5250   8.7371   9.3643   9.5454  10.0490  10.6816

          k = 0.3750 0.3750 0.3750 (  1082 PWs)   bands (ev):

   -44.5445 -21.2886 -21.2035 -21.2033  -5.3213  -5.1484  -5.0965  -3.9255
    -3.9143  -3.6367  -3.5674  -3.5433   4.1556   5.9006   5.9749   6.6958
     7.1379   7.1870   7.9974  10.6074  10.6670  10.7835

          k = 0.3750-0.1250 0.1250 (  1095 PWs)   bands (ev):

   -44.5471 -21.2337 -21.2096 -21.1498  -5.9359  -5.1396  -5.0427  -4.0342
    -3.9690  -3.9565  -3.8901  -3.7548   3.9060   6.9075   7.3767   7.8539
     8.4424   8.8121   9.2902   9.9035  10.0118  10.8511

          k = 0.3750-0.3750 0.1250 (  1087 PWs)   bands (ev):

   -44.5458 -21.2316 -21.2064 -21.2056  -5.7719  -4.9698  -4.8926  -4.0022
    -3.9637  -3.9026  -3.8167  -3.6926   3.5601   6.8505   6.9064   7.1641
     7.4711   8.6961   9.5066   9.5174  10.0248  10.7867

     highest occupied level (ev):    10.9389

!    total energy              =    -333.18024305 Ry
     estimated scf accuracy    <       0.00000002 Ry

     The total energy is the sum of the following terms:
     one-electron contribution =     -76.94256327 Ry
     hartree contribution      =      66.48364005 Ry
     xc contribution           =     -49.66825268 Ry
     ewald contribution        =    -273.05306715 Ry

     convergence has been achieved in   7 iterations

     Forces acting on atoms (cartesian axes, Ry/au):

     atom    1 type  2   force =     0.00000000    0.00000000    0.01796368
     atom    2 type  3   force =     0.00000000    0.00000000   -0.04053587
     atom    3 type  1   force =     0.00000000    0.00000000    0.00327811
     atom    4 type  1   force =     0.00000000    0.00000000    0.00327811
     atom    5 type  1   force =     0.00000000    0.00000000    0.01601598

     Total force =     0.016673     Total SCF correction =     0.000039


     Computing stress (Cartesian axis) and pressure

          total   stress  (Ry/bohr**3)                   (kbar)     P=       -2.03
  -0.00008443   0.00000000   0.00000000          -12.42        0.00        0.00
   0.00000000  -0.00008443   0.00000000            0.00      -12.42        0.00
   0.00000000   0.00000000   0.00012746            0.00        0.00       18.75

     Energy error            =      5.7E-04 Ry
     Gradient error          =      1.6E-02 Ry/Bohr

     number of scf cycles    =   2
     number of bfgs steps    =   1

     energy             old  =    -333.1796687346 Ry
     energy             new  =    -333.1802430489 Ry

     CASE: energy            _new < energy            _old

     new trust radius        =       0.0293652557 bohr
     new conv_thr            =       0.0000000057 Ry


ATOMIC_POSITIONS (angstrom)
Pb               0.0000000000        0.0000000000        0.0000000000    0   0   0
Ti               1.9375000000        1.9375000000        2.0925000000    0   0   0
O                0.0000000000        1.9375000000        1.9410185731
O                1.9375000000        0.0000000000        1.9410185731
O                1.9375000000        1.9375000000        0.0296661733


     Message from routine punch:
     Nothing written, as per user request (disk_io='none')
     NEW-OLD atomic charge density approx. for the potential

     total cpu time spent up to now is       12.8 secs

     Self-consistent Calculation

     iteration #  1     ecut=    30.00 Ry     beta= 0.70
     Davidson diagonalization with overlap
     ethr =  1.00E-06,  avg # of iterations =  5.7

     total cpu time spent up to now is       13.3 secs

     total energy              =    -333.18056163 Ry
     estimated scf accuracy    <       0.00017101 Ry

     iteration #  2     ecut=    30.00 Ry     beta= 0.70
     Davidson diagonalization with overlap
     ethr =  3.89E-07,  avg # of iterations =  4.7

     total cpu time spent up to now is       13.7 secs

     total energy              =    -333.18056621 Ry
     estimated scf accuracy    <       0.00017364 Ry

     iteration #  3     ecut=    30.00 Ry     beta= 0.70
     Davidson diagonalization with overlap
     ethr =  3.89E-07,  avg # of iterations =  4.5

     total cpu time spent up to now is       14.1 secs

     total energy              =    -333.18060780 Ry
     estimated scf accuracy    <       0.00002940 Ry

     iteration #  4     ecut=    30.00 Ry     beta= 0.70
     Davidson diagonalization with overlap
     ethr =  6.68E-08,  avg # of iterations =  3.7

     total cpu time spent up to now is       14.5 secs

     total energy              =    -333.18061195 Ry
     estimated scf accuracy    <       0.00000171 Ry

     iteration #  5     ecut=    30.00 Ry     beta= 0.70
     Davidson diagonalization with overlap
     ethr =  3.88E-09,  avg # of iterations =  5.3

     total cpu time spent up to now is       15.0 secs

     total energy              =    -333.18061317 Ry
     estimated scf accuracy    <       0.00000063 Ry

     iteration #  6     ecut=    30.00 Ry     beta= 0.70
     Davidson diagonalization with overlap
     ethr =  1.44E-09,  avg # of iterations =  2.8

     total cpu time spent up to now is       15.3 secs

     total energy              =    -333.18061317 Ry
     estimated scf accuracy    <       0.00000019 Ry

     iteration #  7     ecut=    30.00 Ry     beta= 0.70
     Davidson diagonalization with overlap
     ethr =  4.39E-10,  avg # of iterations =  4.8

     total cpu time spent up to now is       15.8 secs

     total energy              =    -333.18061323 Ry
     estimated scf accuracy    <       0.00000002 Ry

     iteration #  8     ecut=    30.00 Ry     beta= 0.70
     Davidson diagonalization with overlap
     ethr =  3.63E-11,  avg # of iterations =  2.0

     total cpu time spent up to now is       16.3 secs

     total energy              =    -333.18061323 Ry
     estimated scf accuracy    <          7.2E-09 Ry

     iteration #  9     ecut=    30.00 Ry     beta= 0.70
     Davidson diagonalization with overlap
     ethr =  1.64E-11,  avg # of iterations =  4.7

     total cpu time spent up to now is       16.7 secs

     End of self-consistent calculation

          k = 0.1250 0.1250 0.1250 (  1090 PWs)   bands (ev):

   -44.5731 -21.2427 -21.1777 -21.1766  -6.3270  -5.2742  -5.2048  -3.9747
    -3.9662  -3.9543  -3.7868  -3.7785   4.6438   7.2909   7.3283   8.0822
     9.0136   9.1131   9.7169   9.8428  10.0651  10.1864

          k = 0.1250 0.1250 0.3750 (  1095 PWs)   bands (ev):

   -44.5718 -21.3014 -21.1754 -21.1744  -5.8814  -5.1332  -5.0785  -4.0338
    -3.9700  -3.9494  -3.8770  -3.7581   3.8813   6.8230   7.2187   7.8436
     8.5148   8.6498   9.4416   9.8982  10.1915  10.9358

          k = 0.1250 0.3750 0.3750 (  1087 PWs)   bands (ev):

   -44.5705 -21.2978 -21.2310 -21.1728  -5.6670  -5.0391  -4.9236  -4.0074
    -3.9626  -3.9085  -3.8165  -3.6512   3.5347   6.6859   6.9768   7.1922
     7.5216   8.7309   9.3856   9.5397  10.0567  10.6893

          k = 0.3750 0.3750 0.3750 (  1082 PWs)   bands (ev):

   -44.5692 -21.2952 -21.2286 -21.2284  -5.3173  -5.1468  -5.1015  -3.9202
    -3.9106  -3.6309  -3.5638  -3.5425   4.1599   5.9119   5.9736   6.6943
     7.1322   7.1730   8.0034  10.6224  10.6779  10.7778

          k = 0.3750-0.1250 0.1250 (  1095 PWs)   bands (ev):

   -44.5718 -21.2406 -21.2345 -21.1750  -5.9342  -5.1373  -5.0489  -4.0300
    -3.9645  -3.9524  -3.8855  -3.7516   3.9105   6.9002   7.3779   7.8532
     8.4442   8.8113   9.3093   9.9114  10.0268  10.8576

          k = 0.3750-0.3750 0.1250 (  1087 PWs)   bands (ev):

   -44.5705 -21.2385 -21.2313 -21.2307  -5.7624  -4.9751  -4.8992  -3.9987
    -3.9594  -3.8995  -3.8133  -3.6856   3.5605   6.8454   6.9024   7.1774
     7.4834   8.6958   9.5085   9.5151  10.0280  10.7806

     highest occupied level (ev):    10.9358

!    total energy              =    -333.18061323 Ry
     estimated scf accuracy    <          2.6E-09 Ry

     The total energy is the sum of the following terms:
     one-electron contribution =     -76.78421874 Ry
     hartree contribution      =      66.39906930 Ry
     xc contribution           =     -49.66213199 Ry
     ewald contribution        =    -273.13333180 Ry

     convergence has been achieved in   9 iterations

     Forces acting on atoms (cartesian axes, Ry/au):

     atom    1 type  2   force =     0.00000000    0.00000000    0.01800644
     atom    2 type  3   force =     0.00000000    0.00000000   -0.03485493
     atom    3 type  1   force =     0.00000000    0.00000000    0.00548227
     atom    4 type  1   force =     0.00000000    0.00000000    0.00548227
     atom    5 type  1   force =     0.00000000    0.00000000    0.00588396

     Total force =     0.009733     Total SCF correction =     0.000012


     Computing stress (Cartesian axis) and pressure

          total   stress  (Ry/bohr**3)                   (kbar)     P=       -5.42
  -0.00008974   0.00000000   0.00000000          -13.20        0.00        0.00
   0.00000000  -0.00008974   0.00000000            0.00      -13.20        0.00
   0.00000000   0.00000000   0.00006902            0.00        0.00       10.15

     Energy error            =      3.7E-04 Ry
     Gradient error          =      5.9E-03 Ry/Bohr

     number of scf cycles    =   3
     number of bfgs steps    =   2

     energy             old  =    -333.1802430489 Ry
     energy             new  =    -333.1806132301 Ry

     CASE: energy            _new < energy            _old

     new trust radius        =       0.0287362928 bohr
     new conv_thr            =       0.0000000037 Ry


ATOMIC_POSITIONS (angstrom)
Pb               0.0000000000        0.0000000000        0.0000000000    0   0   0
Ti               1.9375000000        1.9375000000        2.0925000000    0   0   0
O                0.0000000000        1.9375000000        1.9478174757
O                1.9375000000        0.0000000000        1.9478174757
O                1.9375000000        1.9375000000        0.0448727646


     Message from routine punch:
     Nothing written, as per user request (disk_io='none')
     NEW-OLD atomic charge density approx. for the potential

     total cpu time spent up to now is       18.2 secs

     Self-consistent Calculation

     iteration #  1     ecut=    30.00 Ry     beta= 0.70
     Davidson diagonalization with overlap
     ethr =  1.00E-06,  avg # of iterations =  6.0

     total cpu time spent up to now is       18.7 secs

     total energy              =    -333.18078865 Ry
     estimated scf accuracy    <       0.00016519 Ry

     iteration #  2     ecut=    30.00 Ry     beta= 0.70
     Davidson diagonalization with overlap
     ethr =  3.75E-07,  avg # of iterations =  4.7

     total cpu time spent up to now is       19.2 secs

     total energy              =    -333.18079209 Ry
     estimated scf accuracy    <       0.00014180 Ry

     iteration #  3     ecut=    30.00 Ry     beta= 0.70
     Davidson diagonalization with overlap
     ethr =  3.22E-07,  avg # of iterations =  4.5

     total cpu time spent up to now is       19.6 secs

     total energy              =    -333.18082680 Ry
     estimated scf accuracy    <       0.00003069 Ry

     iteration #  4     ecut=    30.00 Ry     beta= 0.70
     Davidson diagonalization with overlap
     ethr =  6.98E-08,  avg # of iterations =  3.3

     total cpu time spent up to now is       20.0 secs

     total energy              =    -333.18083034 Ry
     estimated scf accuracy    <       0.00000229 Ry

     iteration #  5     ecut=    30.00 Ry     beta= 0.70
     Davidson diagonalization with overlap
     ethr =  5.21E-09,  avg # of iterations =  5.2

     total cpu time spent up to now is       20.4 secs

     total energy              =    -333.18083203 Ry
     estimated scf accuracy    <       0.00000148 Ry

     iteration #  6     ecut=    30.00 Ry     beta= 0.70
     Davidson diagonalization with overlap
     ethr =  3.36E-09,  avg # of iterations =  2.7

     total cpu time spent up to now is       20.8 secs

     total energy              =    -333.18083194 Ry
     estimated scf accuracy    <       0.00000061 Ry

     iteration #  7     ecut=    30.00 Ry     beta= 0.70
     Davidson diagonalization with overlap
     ethr =  1.38E-09,  avg # of iterations =  4.5

     total cpu time spent up to now is       21.2 secs

     total energy              =    -333.18083211 Ry
     estimated scf accuracy    <       0.00000003 Ry

     iteration #  8     ecut=    30.00 Ry     beta= 0.70
     Davidson diagonalization with overlap
     ethr =  5.97E-11,  avg # of iterations =  3.8

     total cpu time spent up to now is       21.6 secs

     End of self-consistent calculation

          k = 0.1250 0.1250 0.1250 (  1090 PWs)   bands (ev):

   -44.5934 -21.2480 -21.1987 -21.1977  -6.3282  -5.2693  -5.2127  -3.9705
    -3.9633  -3.9513  -3.7834  -3.7763   4.6473   7.2937   7.3230   8.0823
     9.0371   9.1248   9.7514   9.8497  10.0543  10.1866

          k = 0.1250 0.1250 0.3750 (  1095 PWs)   bands (ev):

   -44.5922 -21.3065 -21.1965 -21.1955  -5.8885  -5.1230  -5.0875  -4.0298
    -3.9657  -3.9466  -3.8748  -3.7544   3.8915   6.8250   7.2366   7.8387
     8.5102   8.6715   9.4380   9.9056  10.1817  10.9305

          k = 0.1250 0.3750 0.3750 (  1087 PWs)   bands (ev):

   -44.5909 -21.3029 -21.2520 -21.1939  -5.6738  -5.0297  -4.9281  -4.0034
    -3.9587  -3.9049  -3.8132  -3.6502   3.5403   6.7027   6.9621   7.1915
     7.5173   8.7241   9.4035   9.5334  10.0624  10.6975

          k = 0.3750 0.3750 0.3750 (  1082 PWs)   bands (ev):

   -44.5896 -21.3004 -21.2496 -21.2494  -5.3136  -5.1446  -5.1067  -3.9160
    -3.9078  -3.6261  -3.5608  -3.5421   4.1626   5.9215   5.9707   6.6955
     7.1227   7.1553   8.0079  10.6368  10.6871  10.7724

          k = 0.3750-0.1250 0.1250 (  1095 PWs)   bands (ev):

   -44.5922 -21.2558 -21.2457 -21.1961  -5.9321  -5.1360  -5.0552  -4.0267
    -3.9609  -3.9492  -3.8816  -3.7491   3.9142   6.8918   7.3768   7.8524
     8.4462   8.8068   9.3273   9.9195  10.0428  10.8632

          k = 0.3750-0.3750 0.1250 (  1087 PWs)   bands (ev):

   -44.5909 -21.2528 -21.2517 -21.2434  -5.7524  -4.9805  -4.9060  -3.9960
    -3.9560  -3.8971  -3.8106  -3.6796   3.5599   6.8402   6.8963   7.1866
     7.4916   8.6950   9.5072   9.5131  10.0323  10.7738

     highest occupied level (ev):    10.9305

!    total energy              =    -333.18083211 Ry
     estimated scf accuracy    <          3.2E-09 Ry

     The total energy is the sum of the following terms:
     one-electron contribution =     -76.67865735 Ry
     hartree contribution      =      66.34103883 Ry
     xc contribution           =     -49.65740965 Ry
     ewald contribution        =    -273.18580394 Ry

     convergence has been achieved in   8 iterations

     Forces acting on atoms (cartesian axes, Ry/au):

     atom    1 type  2   force =     0.00000000    0.00000000    0.01775153
     atom    2 type  3   force =     0.00000000    0.00000000   -0.03011113
     atom    3 type  1   force =     0.00000000    0.00000000    0.00711439
     atom    4 type  1   force =     0.00000000    0.00000000    0.00711439
     atom    5 type  1   force =     0.00000000    0.00000000   -0.00186918

     Total force =     0.010233     Total SCF correction =     0.000028


     Computing stress (Cartesian axis) and pressure

          total   stress  (Ry/bohr**3)                   (kbar)     P=       -8.43
  -0.00009503   0.00000000   0.00000000          -13.98        0.00        0.00
   0.00000000  -0.00009503   0.00000000            0.00      -13.98        0.00
   0.00000000   0.00000000   0.00001809            0.00        0.00        2.66

     Energy error            =      2.2E-04 Ry
     Gradient error          =      7.1E-03 Ry/Bohr

     number of scf cycles    =   4
     number of bfgs steps    =   3

     energy             old  =    -333.1806132301 Ry
     energy             new  =    -333.1808321102 Ry

     CASE: energy            _new < energy            _old

     new trust radius        =       0.0255818425 bohr
     new conv_thr            =       0.0000000022 Ry


ATOMIC_POSITIONS (angstrom)
Pb               0.0000000000        0.0000000000        0.0000000000    0   0   0
Ti               1.9375000000        1.9375000000        2.0925000000    0   0   0
O                0.0000000000        1.9375000000        1.9590423254
O                1.9375000000        0.0000000000        1.9590423254
O                1.9375000000        1.9375000000        0.0584100926


     Message from routine punch:
     Nothing written, as per user request (disk_io='none')
     NEW-OLD atomic charge density approx. for the potential

     total cpu time spent up to now is       23.1 secs

     Self-consistent Calculation

     iteration #  1     ecut=    30.00 Ry     beta= 0.70
     Davidson diagonalization with overlap
     ethr =  1.00E-06,  avg # of iterations =  7.2

     total cpu time spent up to now is       23.6 secs

     total energy              =    -333.18101072 Ry
     estimated scf accuracy    <       0.00016044 Ry

     iteration #  2     ecut=    30.00 Ry     beta= 0.70
     Davidson diagonalization with overlap
     ethr =  3.65E-07,  avg # of iterations =  4.5

     total cpu time spent up to now is       24.0 secs

     total energy              =    -333.18101103 Ry
     estimated scf accuracy    <       0.00010046 Ry

     iteration #  3     ecut=    30.00 Ry     beta= 0.70
     Davidson diagonalization with overlap
     ethr =  2.28E-07,  avg # of iterations =  4.5

     total cpu time spent up to now is       24.4 secs

     total energy              =    -333.18103796 Ry
     estimated scf accuracy    <       0.00004544 Ry

     iteration #  4     ecut=    30.00 Ry     beta= 0.70
     Davidson diagonalization with overlap
     ethr =  1.03E-07,  avg # of iterations =  3.3

     total cpu time spent up to now is       24.8 secs

     total energy              =    -333.18104172 Ry
     estimated scf accuracy    <       0.00000420 Ry

     iteration #  5     ecut=    30.00 Ry     beta= 0.70
     Davidson diagonalization with overlap
     ethr =  9.55E-09,  avg # of iterations =  5.0

     total cpu time spent up to now is       25.2 secs

     total energy              =    -333.18104484 Ry
     estimated scf accuracy    <       0.00000372 Ry

     iteration #  6     ecut=    30.00 Ry     beta= 0.70
     Davidson diagonalization with overlap
     ethr =  8.44E-09,  avg # of iterations =  1.0

     total cpu time spent up to now is       25.6 secs

     total energy              =    -333.18104439 Ry
     estimated scf accuracy    <       0.00000195 Ry

     iteration #  7     ecut=    30.00 Ry     beta= 0.70
     Davidson diagonalization with overlap
     ethr =  4.43E-09,  avg # of iterations =  3.3

     total cpu time spent up to now is       25.9 secs

     total energy              =    -333.18104479 Ry
     estimated scf accuracy    <       0.00000004 Ry

     iteration #  8     ecut=    30.00 Ry     beta= 0.70
     Davidson diagonalization with overlap
     ethr =  9.37E-11,  avg # of iterations =  5.7

     total cpu time spent up to now is       26.4 secs

     total energy              =    -333.18104482 Ry
     estimated scf accuracy    <          2.4E-09 Ry

     iteration #  9     ecut=    30.00 Ry     beta= 0.70
     Davidson diagonalization with overlap
     ethr =  5.34E-12,  avg # of iterations =  5.8

     total cpu time spent up to now is       26.9 secs

     total energy              =    -333.18104482 Ry
     estimated scf accuracy    <          8.8E-09 Ry

     iteration # 10     ecut=    30.00 Ry     beta= 0.70
     Davidson diagonalization with overlap
     ethr =  5.34E-12,  avg # of iterations =  4.7

     total cpu time spent up to now is       27.3 secs

     End of self-consistent calculation

          k = 0.1250 0.1250 0.1250 (  1090 PWs)   bands (ev):

   -44.6097 -21.2526 -21.2158 -21.2148  -6.3292  -5.2658  -5.2219  -3.9671
    -3.9609  -3.9489  -3.7809  -3.7746   4.6502   7.2971   7.3191   8.0849
     9.0576   9.1326   9.7875   9.8586  10.0416  10.1812

          k = 0.1250 0.1250 0.3750 (  1095 PWs)   bands (ev):

   -44.6085 -21.3110 -21.2136 -21.2126  -5.8957  -5.1139  -5.0980  -4.0264
    -3.9622  -3.9444  -3.8728  -3.7514   3.9008   6.8280   7.2572   7.8379
     8.5002   8.6886   9.4321   9.9145  10.1706  10.9231

          k = 0.1250 0.3750 0.3750 (  1087 PWs)   bands (ev):

   -44.6072 -21.3074 -21.2692 -21.2110  -5.6809  -5.0219  -4.9322  -4.0002
    -3.9557  -3.9020  -3.8105  -3.6495   3.5447   6.7204   6.9440   7.1913
     7.5122   8.7168   9.4160   9.5262  10.0659  10.7052

          k = 0.3750 0.3750 0.3750 (  1082 PWs)   bands (ev):

   -44.6059 -21.3049 -21.2668 -21.2666  -5.3104  -5.1423  -5.1121  -3.9126
    -3.9057  -3.6221  -3.5581  -3.5417   4.1634   5.9290   5.9659   6.6994
     7.1091   7.1336   8.0114  10.6493  10.6935  10.7675

          k = 0.3750-0.1250 0.1250 (  1095 PWs)   bands (ev):

   -44.6085 -21.2729 -21.2503 -21.2132  -5.9299  -5.1363  -5.0616  -4.0242
    -3.9581  -3.9466  -3.8779  -3.7470   3.9169   6.8821   7.3733   7.8523
     8.4485   8.7984   9.3421   9.9266  10.0585  10.8671

          k = 0.3750-0.3750 0.1250 (  1087 PWs)   bands (ev):

   -44.6072 -21.2698 -21.2688 -21.2482  -5.7424  -4.9864  -4.9130  -3.9940
    -3.9531  -3.8947  -3.8080  -3.6745   3.5580   6.8349   6.8882   7.1907
     7.4941   8.6937   9.5024   9.5108  10.0375  10.7663

     highest occupied level (ev):    10.9231

!    total energy              =    -333.18104482 Ry
     estimated scf accuracy    <          1.8E-10 Ry

     The total energy is the sum of the following terms:
     one-electron contribution =     -76.63958930 Ry
     hartree contribution      =      66.31737190 Ry
     xc contribution           =     -49.65454063 Ry
     ewald contribution        =    -273.20428678 Ry

     convergence has been achieved in  10 iterations

     Forces acting on atoms (cartesian axes, Ry/au):

     atom    1 type  2   force =     0.00000000    0.00000000    0.01709139
     atom    2 type  3   force =     0.00000000    0.00000000   -0.02650691
     atom    3 type  1   force =     0.00000000    0.00000000    0.00786821
     atom    4 type  1   force =     0.00000000    0.00000000    0.00786821
     atom    5 type  1   force =     0.00000000    0.00000000   -0.00632088

     Total force =     0.012797     Total SCF correction =     0.000002


     Computing stress (Cartesian axis) and pressure

          total   stress  (Ry/bohr**3)                   (kbar)     P=      -10.05
  -0.00009437   0.00000000   0.00000000          -13.88        0.00        0.00
   0.00000000  -0.00009437   0.00000000            0.00      -13.88        0.00
   0.00000000   0.00000000  -0.00001629            0.00        0.00       -2.40

     Energy error            =      2.1E-04 Ry
     Gradient error          =      7.9E-03 Ry/Bohr

     number of scf cycles    =   5
     number of bfgs steps    =   4

     energy             old  =    -333.1808321102 Ry
     energy             new  =    -333.1810448169 Ry

     CASE: energy            _new < energy            _old

     new trust radius        =       0.0281400267 bohr
     new conv_thr            =       0.0000000021 Ry


ATOMIC_POSITIONS (angstrom)
Pb               0.0000000000        0.0000000000        0.0000000000    0   0   0
Ti               1.9375000000        1.9375000000        2.0925000000    0   0   0
O                0.0000000000        1.9375000000        1.9739333862
O                1.9375000000        0.0000000000        1.9739333862
O                1.9375000000        1.9375000000        0.0714411672


     Message from routine punch:
     Nothing written, as per user request (disk_io='none')
     NEW-OLD atomic charge density approx. for the potential

     total cpu time spent up to now is       28.8 secs

     Self-consistent Calculation

     iteration #  1     ecut=    30.00 Ry     beta= 0.70
     Davidson diagonalization with overlap
     ethr =  1.00E-06,  avg # of iterations =  7.0

     total cpu time spent up to now is       29.3 secs

     total energy              =    -333.18127186 Ry
     estimated scf accuracy    <       0.00019087 Ry

     iteration #  2     ecut=    30.00 Ry     beta= 0.70
     Davidson diagonalization with overlap
     ethr =  4.34E-07,  avg # of iterations =  4.3

     total cpu time spent up to now is       29.7 secs

     total energy              =    -333.18127461 Ry
     estimated scf accuracy    <       0.00008258 Ry

     iteration #  3     ecut=    30.00 Ry     beta= 0.70
     Davidson diagonalization with overlap
     ethr =  1.88E-07,  avg # of iterations =  4.7

     total cpu time spent up to now is       30.1 secs

     total energy              =    -333.18129717 Ry
     estimated scf accuracy    <       0.00006521 Ry

     iteration #  4     ecut=    30.00 Ry     beta= 0.70
     Davidson diagonalization with overlap
     ethr =  1.48E-07,  avg # of iterations =  3.3

     total cpu time spent up to now is       30.5 secs

     total energy              =    -333.18130359 Ry
     estimated scf accuracy    <       0.00000407 Ry

     iteration #  5     ecut=    30.00 Ry     beta= 0.70
     Davidson diagonalization with overlap
     ethr =  9.25E-09,  avg # of iterations =  5.8

     total cpu time spent up to now is       31.0 secs

     total energy              =    -333.18130730 Ry
     estimated scf accuracy    <       0.00000676 Ry

     iteration #  6     ecut=    30.00 Ry     beta= 0.70
     Davidson diagonalization with overlap
     ethr =  9.25E-09,  avg # of iterations =  2.0

     total cpu time spent up to now is       31.3 secs

     total energy              =    -333.18130664 Ry
     estimated scf accuracy    <       0.00000394 Ry

     iteration #  7     ecut=    30.00 Ry     beta= 0.70
     Davidson diagonalization with overlap
     ethr =  8.95E-09,  avg # of iterations =  3.3

     total cpu time spent up to now is       31.7 secs

     total energy              =    -333.18130680 Ry
     estimated scf accuracy    <       0.00000076 Ry

     iteration #  8     ecut=    30.00 Ry     beta= 0.70
     Davidson diagonalization with overlap
     ethr =  1.73E-09,  avg # of iterations =  4.7

     total cpu time spent up to now is       32.1 secs

     total energy              =    -333.18130710 Ry
     estimated scf accuracy    <       0.00000008 Ry

     iteration #  9     ecut=    30.00 Ry     beta= 0.70
     Davidson diagonalization with overlap
     ethr =  1.83E-10,  avg # of iterations =  2.7

     total cpu time spent up to now is       32.5 secs

     total energy              =    -333.18130709 Ry
     estimated scf accuracy    <       0.00000003 Ry

     iteration # 10     ecut=    30.00 Ry     beta= 0.70
     Davidson diagonalization with overlap
     ethr =  6.30E-11,  avg # of iterations =  4.5

     total cpu time spent up to now is       32.9 secs

     total energy              =    -333.18130710 Ry
     estimated scf accuracy    <          3.0E-09 Ry

     iteration # 11     ecut=    30.00 Ry     beta= 0.70
     Davidson diagonalization with overlap
     ethr =  6.89E-12,  avg # of iterations =  2.3

     total cpu time spent up to now is       33.2 secs

     End of self-consistent calculation

          k = 0.1250 0.1250 0.1250 (  1090 PWs)   bands (ev):

   -44.6236 -21.2568 -21.2306 -21.2296  -6.3306  -5.2632  -5.2326  -3.9638
    -3.9587  -3.9464  -3.7785  -3.7723   4.6530   7.3006   7.3160   8.0889
     9.0762   9.1376   9.8256   9.8685  10.0269  10.1708

          k = 0.1250 0.1250 0.3750 (  1095 PWs)   bands (ev):

   -44.6223 -21.3150 -21.2284 -21.2275  -5.9038  -5.1102  -5.1054  -4.0229
    -3.9587  -3.9422  -3.8704  -3.7486   3.9100   6.8317   7.2795   7.8388
     8.4863   8.7033   9.4239   9.9240  10.1580  10.9144

          k = 0.1250 0.3750 0.3750 (  1087 PWs)   bands (ev):

   -44.6211 -21.3114 -21.2841 -21.2259  -5.6889  -5.0158  -4.9362  -3.9969
    -3.9527  -3.8989  -3.8076  -3.6483   3.5487   6.7389   6.9231   7.1905
     7.5067   8.7085   9.4245   9.5186  10.0682  10.7122

          k = 0.3750 0.3750 0.3750 (  1082 PWs)   bands (ev):

   -44.6198 -21.3089 -21.2817 -21.2815  -5.3081  -5.1401  -5.1183  -3.9092
    -3.9034  -3.6184  -3.5550  -3.5407   4.1624   5.9353   5.9597   6.7042
     7.0929   7.1092   8.0153  10.6603  10.6964  10.7635

          k = 0.3750-0.1250 0.1250 (  1095 PWs)   bands (ev):

   -44.6224 -21.2878 -21.2545 -21.2280  -5.9282  -5.1381  -5.0689  -4.0216
    -3.9553  -3.9440  -3.8735  -3.7445   3.9191   6.8711   7.3678   7.8526
     8.4508   8.7875   9.3544   9.9323  10.0737  10.8703

          k = 0.3750-0.3750 0.1250 (  1087 PWs)   bands (ev):

   -44.6211 -21.2847 -21.2838 -21.2524  -5.7325  -4.9934  -4.9213  -3.9920
    -3.9500  -3.8917  -3.8048  -3.6696   3.5549   6.8290   6.8785   7.1915
     7.4934   8.6921   9.4952   9.5082  10.0435  10.7577

     highest occupied level (ev):    10.9144

!    total energy              =    -333.18130710 Ry
     estimated scf accuracy    <          1.1E-09 Ry

     The total energy is the sum of the following terms:
     one-electron contribution =     -76.64542539 Ry
     hartree contribution      =      66.31666346 Ry
     xc contribution           =     -49.65290042 Ry
     ewald contribution        =    -273.19964475 Ry

     convergence has been achieved in  11 iterations

     Forces acting on atoms (cartesian axes, Ry/au):

     atom    1 type  2   force =     0.00000000    0.00000000    0.01612086
     atom    2 type  3   force =     0.00000000    0.00000000   -0.02361828
     atom    3 type  1   force =     0.00000000    0.00000000    0.00805933
     atom    4 type  1   force =     0.00000000    0.00000000    0.00805933
     atom    5 type  1   force =     0.00000000    0.00000000   -0.00862125

     Total force =     0.014291     Total SCF correction =     0.000012


     Computing stress (Cartesian axis) and pressure

          total   stress  (Ry/bohr**3)                   (kbar)     P=      -10.93
  -0.00009070   0.00000000   0.00000000          -13.34        0.00        0.00
   0.00000000  -0.00009070   0.00000000            0.00      -13.34        0.00
   0.00000000   0.00000000  -0.00004144            0.00        0.00       -6.10

     Energy error            =      2.6E-04 Ry
     Gradient error          =      8.6E-03 Ry/Bohr

     number of scf cycles    =   6
     number of bfgs steps    =   5

     energy             old  =    -333.1810448169 Ry
     energy             new  =    -333.1813071021 Ry

     CASE: energy            _new < energy            _old

     new trust radius        =       0.0422100400 bohr
     new conv_thr            =       0.0000000026 Ry


ATOMIC_POSITIONS (angstrom)
Pb               0.0000000000        0.0000000000        0.0000000000    0   0   0
Ti               1.9375000000        1.9375000000        2.0925000000    0   0   0
O                0.0000000000        1.9375000000        1.9962699775
O                1.9375000000        0.0000000000        1.9962699775
O                1.9375000000        1.9375000000        0.0879875416


     Message from routine punch:
     Nothing written, as per user request (disk_io='none')
     NEW-OLD atomic charge density approx. for the potential

     total cpu time spent up to now is       34.7 secs

     Self-consistent Calculation

     iteration #  1     ecut=    30.00 Ry     beta= 0.70
     Davidson diagonalization with overlap
     ethr =  1.00E-06,  avg # of iterations =  8.5

     total cpu time spent up to now is       35.2 secs

     total energy              =    -333.18162602 Ry
     estimated scf accuracy    <       0.00037014 Ry

     iteration #  2     ecut=    30.00 Ry     beta= 0.70
     Davidson diagonalization with overlap
     ethr =  8.41E-07,  avg # of iterations =  4.0

     total cpu time spent up to now is       35.6 secs

     total energy              =    -333.18165287 Ry
     estimated scf accuracy    <       0.00009259 Ry

     iteration #  3     ecut=    30.00 Ry     beta= 0.70
     Davidson diagonalization with overlap
     ethr =  2.10E-07,  avg # of iterations =  5.0

     total cpu time spent up to now is       36.1 secs

     total energy              =    -333.18167287 Ry
     estimated scf accuracy    <       0.00009473 Ry

     iteration #  4     ecut=    30.00 Ry     beta= 0.70
     Davidson diagonalization with overlap
     ethr =  2.10E-07,  avg # of iterations =  3.7

     total cpu time spent up to now is       36.4 secs

     total energy              =    -333.18168856 Ry
     estimated scf accuracy    <       0.00000152 Ry

     iteration #  5     ecut=    30.00 Ry     beta= 0.70
     Davidson diagonalization with overlap
     ethr =  3.45E-09,  avg # of iterations =  6.3

     total cpu time spent up to now is       37.0 secs

     total energy              =    -333.18169050 Ry
     estimated scf accuracy    <       0.00000612 Ry

     iteration #  6     ecut=    30.00 Ry     beta= 0.70
     Davidson diagonalization with overlap
     ethr =  3.45E-09,  avg # of iterations =  4.2

     total cpu time spent up to now is       37.4 secs

     total energy              =    -333.18169062 Ry
     estimated scf accuracy    <       0.00000118 Ry

     iteration #  7     ecut=    30.00 Ry     beta= 0.70
     Davidson diagonalization with overlap
     ethr =  2.67E-09,  avg # of iterations =  4.3

     total cpu time spent up to now is       37.8 secs

     total energy              =    -333.18169079 Ry
     estimated scf accuracy    <       0.00000004 Ry

     iteration #  8     ecut=    30.00 Ry     beta= 0.70
     Davidson diagonalization with overlap
     ethr =  1.02E-10,  avg # of iterations =  6.0

     total cpu time spent up to now is       38.3 secs

     total energy              =    -333.18169083 Ry
     estimated scf accuracy    <       0.00000008 Ry

     iteration #  9     ecut=    30.00 Ry     beta= 0.70
     Davidson diagonalization with overlap
     ethr =  1.02E-10,  avg # of iterations =  4.0

     total cpu time spent up to now is       38.7 secs

     total energy              =    -333.18169084 Ry
     estimated scf accuracy    <          4.1E-09 Ry

     iteration # 10     ecut=    30.00 Ry     beta= 0.70
     Davidson diagonalization with overlap
     ethr =  9.34E-12,  avg # of iterations =  4.8

     total cpu time spent up to now is       39.1 secs

     End of self-consistent calculation

          k = 0.1250 0.1250 0.1250 (  1090 PWs)   bands (ev):

   -44.6390 -21.2619 -21.2474 -21.2464  -6.3337  -5.2602  -5.2482  -3.9591
    -3.9551  -3.9425  -3.7752  -3.7677   4.6566   7.3039   7.3129   8.0942
     9.0971   9.1409   9.8755   9.8805  10.0062  10.1519

          k = 0.1250 0.1250 0.3750 (  1095 PWs)   bands (ev):

   -44.6378 -21.3199 -21.2452 -21.2442  -5.9159  -5.1281  -5.0947  -4.0175
    -3.9536  -3.9385  -3.8655  -3.7445   3.9216   6.8369   7.3068   7.8393
     8.4668   8.7201   9.4110   9.9352  10.1399  10.9031

          k = 0.1250 0.3750 0.3750 (  1087 PWs)   bands (ev):

   -44.6365 -21.3163 -21.3010 -21.2426  -5.7008  -5.0116  -4.9404  -3.9921
    -3.9483  -3.8940  -3.8029  -3.6453   3.5538   6.7623   6.8946   7.1877
     7.5000   8.6968   9.4303   9.5097  10.0708  10.7202

          k = 0.3750 0.3750 0.3750 (  1082 PWs)   bands (ev):

   -44.6352 -21.3138 -21.2986 -21.2984  -5.3073  -5.1369  -5.1280  -3.9042
    -3.8999  -3.6136  -3.5500  -3.5381   4.1591   5.9425   5.9505   6.7098
     7.0718   7.0776   8.0226  10.6723  10.6942  10.7606

          k = 0.3750-0.1250 0.1250 (  1095 PWs)   bands (ev):

   -44.6378 -21.3047 -21.2596 -21.2447  -5.9274  -5.1420  -5.0796  -4.0178
    -3.9511  -3.9398  -3.8663  -3.7402   3.9214   6.8564   7.3591   7.8530
     8.4527   8.7724   9.3673   9.9371  10.0911  10.8743

          k = 0.3750-0.3750 0.1250 (  1087 PWs)   bands (ev):

   -44.6365 -21.3016 -21.3006 -21.2575  -5.7203  -5.0047  -4.9346  -3.9887
    -3.9448  -3.8858  -3.7987  -3.6628   3.5493   6.8207   6.8647   7.1899
     7.4909   8.6906   9.4848   9.5046  10.0523  10.7447

     highest occupied level (ev):    10.9031

!    total energy              =    -333.18169084 Ry
     estimated scf accuracy    <          5.0E-10 Ry

     The total energy is the sum of the following terms:
     one-electron contribution =     -76.69595688 Ry
     hartree contribution      =      66.33767398 Ry
     xc contribution           =     -49.65199728 Ry
     ewald contribution        =    -273.17141066 Ry

     convergence has been achieved in  10 iterations

     Forces acting on atoms (cartesian axes, Ry/au):

     atom    1 type  2   force =     0.00000000    0.00000000    0.01467323
     atom    2 type  3   force =     0.00000000    0.00000000   -0.02083727
     atom    3 type  1   force =     0.00000000    0.00000000    0.00786980
     atom    4 type  1   force =     0.00000000    0.00000000    0.00786980
     atom    5 type  1   force =     0.00000000    0.00000000   -0.00957556

     Total force =     0.014682     Total SCF correction =     0.000007


     Computing stress (Cartesian axis) and pressure

          total   stress  (Ry/bohr**3)                   (kbar)     P=      -11.48
  -0.00008462   0.00000000   0.00000000          -12.45        0.00        0.00
   0.00000000  -0.00008462   0.00000000            0.00      -12.45        0.00
   0.00000000   0.00000000  -0.00006482            0.00        0.00       -9.54

     Energy error            =      3.8E-04 Ry
     Gradient error          =      9.6E-03 Ry/Bohr

     number of scf cycles    =   7
     number of bfgs steps    =   6

     energy             old  =    -333.1813071021 Ry
     energy             new  =    -333.1816908417 Ry

     CASE: energy            _new < energy            _old

     new trust radius        =       0.0633150601 bohr
     new conv_thr            =       0.0000000038 Ry


ATOMIC_POSITIONS (angstrom)
Pb               0.0000000000        0.0000000000        0.0000000000    0   0   0
Ti               1.9375000000        1.9375000000        2.0925000000    0   0   0
O                0.0000000000        1.9375000000        2.0297748644
O                1.9375000000        0.0000000000        2.0297748644
O                1.9375000000        1.9375000000        0.1110296896


     Message from routine punch:
     Nothing written, as per user request (disk_io='none')
     NEW-OLD atomic charge density approx. for the potential

     total cpu time spent up to now is       40.5 secs

     Self-consistent Calculation

     iteration #  1     ecut=    30.00 Ry     beta= 0.70
     Davidson diagonalization with overlap
     ethr =  1.00E-06,  avg # of iterations =  9.2

     total cpu time spent up to now is       41.1 secs

     total energy              =    -333.18211149 Ry
     estimated scf accuracy    <       0.00078597 Ry

     iteration #  2     ecut=    30.00 Ry     beta= 0.70
     Davidson diagonalization with overlap
     ethr =  1.79E-06,  avg # of iterations =  2.5

     total cpu time spent up to now is       41.5 secs

     total energy              =    -333.18221647 Ry
     estimated scf accuracy    <       0.00007684 Ry

     iteration #  3     ecut=    30.00 Ry     beta= 0.70
     Davidson diagonalization with overlap
     ethr =  1.75E-07,  avg # of iterations =  4.2

     total cpu time spent up to now is       41.9 secs

     total energy              =    -333.18223013 Ry
     estimated scf accuracy    <       0.00003636 Ry

     iteration #  4     ecut=    30.00 Ry     beta= 0.70
     Davidson diagonalization with overlap
     ethr =  8.26E-08,  avg # of iterations =  4.7

     total cpu time spent up to now is       42.3 secs

     total energy              =    -333.18223850 Ry
     estimated scf accuracy    <       0.00001067 Ry

     iteration #  5     ecut=    30.00 Ry     beta= 0.70
     Davidson diagonalization with overlap
     ethr =  2.43E-08,  avg # of iterations =  3.8

     total cpu time spent up to now is       42.7 secs

     total energy              =    -333.18224070 Ry
     estimated scf accuracy    <       0.00000032 Ry

     iteration #  6     ecut=    30.00 Ry     beta= 0.70
     Davidson diagonalization with overlap
     ethr =  7.20E-10,  avg # of iterations =  5.5

     total cpu time spent up to now is       43.2 secs

     total energy              =    -333.18224081 Ry
     estimated scf accuracy    <       0.00000047 Ry

     iteration #  7     ecut=    30.00 Ry     beta= 0.70
     Davidson diagonalization with overlap
     ethr =  7.20E-10,  avg # of iterations =  4.3

     total cpu time spent up to now is       43.6 secs

     total energy              =    -333.18224086 Ry
     estimated scf accuracy    <       0.00000004 Ry

     iteration #  8     ecut=    30.00 Ry     beta= 0.70
     Davidson diagonalization with overlap
     ethr =  9.90E-11,  avg # of iterations =  4.5

     total cpu time spent up to now is       44.0 secs

     total energy              =    -333.18224087 Ry
     estimated scf accuracy    <          6.3E-09 Ry

     iteration #  9     ecut=    30.00 Ry     beta= 0.70
     Davidson diagonalization with overlap
     ethr =  1.43E-11,  avg # of iterations =  4.8

     total cpu time spent up to now is       44.5 secs

     End of self-consistent calculation

          k = 0.1250 0.1250 0.1250 (  1090 PWs)   bands (ev):

   -44.6569 -21.2689 -21.2666 -21.2659  -6.3411  -5.2719  -5.2561  -3.9511
    -3.9486  -3.9351  -3.7694  -3.7573   4.6615   7.3044   7.3095   8.1003
     9.1194   9.1407   9.8922   9.9387   9.9781  10.1220

          k = 0.1250 0.1250 0.3750 (  1095 PWs)   bands (ev):

   -44.6557 -21.3264 -21.2647 -21.2638  -5.9356  -5.1553  -5.0802  -4.0078
    -3.9448  -3.9315  -3.8547  -3.7374   3.9368   6.8440   7.3351   7.8348
     8.4434   8.7399   9.3910   9.9460  10.1130  10.8903

          k = 0.1250 0.3750 0.3750 (  1087 PWs)   bands (ev):

   -44.6544 -21.3229 -21.3207 -21.2621  -5.7197  -5.0159  -4.9417  -3.9836
    -3.9405  -3.8853  -3.7940  -3.6373   3.5615   6.7901   6.8565   7.1798
     7.4919   8.6791   9.4281   9.5025  10.0753  10.7283

          k = 0.3750 0.3750 0.3750 (  1082 PWs)   bands (ev):

   -44.6531 -21.3204 -21.3183 -21.3181  -5.3115  -5.1446  -5.1314  -3.8956
    -3.8929  -3.6063  -3.5405  -3.5311   4.1512   5.9371   5.9510   6.7131
     7.0394   7.0472   8.0388  10.6808  10.6844  10.7608

          k = 0.3750-0.1250 0.1250 (  1095 PWs)   bands (ev):

   -44.6557 -21.3244 -21.2665 -21.2641  -5.9298  -5.1497  -5.0964  -4.0108
    -3.9435  -3.9318  -3.8527  -3.7314   3.9243   6.8363   7.3458   7.8524
     8.4523   8.7531   9.3800   9.9388  10.1080  10.8810

          k = 0.3750-0.3750 0.1250 (  1087 PWs)   bands (ev):

   -44.6544 -21.3212 -21.3203 -21.2642  -5.7055  -5.0241  -4.9578  -3.9823
    -3.9349  -3.8734  -3.7861  -3.6523   3.5393   6.8076   6.8454   7.1864
     7.4886   8.6902   9.4713   9.4996  10.0660  10.7243

     highest occupied level (ev):    10.8903

!    total energy              =    -333.18224087 Ry
     estimated scf accuracy    <          1.1E-09 Ry

     The total energy is the sum of the following terms:
     one-electron contribution =     -76.81707012 Ry
     hartree contribution      =      66.39326933 Ry
     xc contribution           =     -49.65230575 Ry
     ewald contribution        =    -273.10613433 Ry

     convergence has been achieved in   9 iterations

     Forces acting on atoms (cartesian axes, Ry/au):

     atom    1 type  2   force =     0.00000000    0.00000000    0.01274632
     atom    2 type  3   force =     0.00000000    0.00000000   -0.01843820
     atom    3 type  1   force =     0.00000000    0.00000000    0.00722759
     atom    4 type  1   force =     0.00000000    0.00000000    0.00722759
     atom    5 type  1   force =     0.00000000    0.00000000   -0.00876329

     Total force =     0.013464     Total SCF correction =     0.000005


     Computing stress (Cartesian axis) and pressure

          total   stress  (Ry/bohr**3)                   (kbar)     P=      -11.47
  -0.00007508   0.00000000   0.00000000          -11.04        0.00        0.00
   0.00000000  -0.00007508   0.00000000            0.00      -11.04        0.00
   0.00000000   0.00000000  -0.00008369            0.00        0.00      -12.31

     Energy error            =      5.5E-04 Ry
     Gradient error          =      8.8E-03 Ry/Bohr

     number of scf cycles    =   8
     number of bfgs steps    =   7

     energy             old  =    -333.1816908417 Ry
     energy             new  =    -333.1822408706 Ry

     CASE: energy            _new < energy            _old

     new trust radius        =       0.0949725901 bohr
     new conv_thr            =       0.0000000055 Ry


ATOMIC_POSITIONS (angstrom)
Pb               0.0000000000        0.0000000000        0.0000000000    0   0   0
Ti               1.9375000000        1.9375000000        2.0925000000    0   0   0
O                0.0000000000        1.9375000000        2.0800321947
O                1.9375000000        0.0000000000        2.0800321947
O                1.9375000000        1.9375000000        0.1456431274


     Message from routine punch:
     Nothing written, as per user request (disk_io='none')
     NEW-OLD atomic charge density approx. for the potential

     total cpu time spent up to now is       46.0 secs

     Self-consistent Calculation

     iteration #  1     ecut=    30.00 Ry     beta= 0.70
     Davidson diagonalization with overlap
     ethr =  1.00E-06,  avg # of iterations =  9.7

     total cpu time spent up to now is       46.6 secs

     total energy              =    -333.18278018 Ry
     estimated scf accuracy    <       0.00172176 Ry

     iteration #  2     ecut=    30.00 Ry     beta= 0.70
     Davidson diagonalization with overlap
     ethr =  3.91E-06,  avg # of iterations =  2.2

     total cpu time spent up to now is       47.0 secs

     total energy              =    -333.18301086 Ry
     estimated scf accuracy    <       0.00011389 Ry

     iteration #  3     ecut=    30.00 Ry     beta= 0.70
     Davidson diagonalization with overlap
     ethr =  2.59E-07,  avg # of iterations =  4.0

     total cpu time spent up to now is       47.4 secs

     total energy              =    -333.18303034 Ry
     estimated scf accuracy    <       0.00003660 Ry

     iteration #  4     ecut=    30.00 Ry     beta= 0.70
     Davidson diagonalization with overlap
     ethr =  8.32E-08,  avg # of iterations =  4.8

     total cpu time spent up to now is       47.8 secs

     total energy              =    -333.18303756 Ry
     estimated scf accuracy    <       0.00001860 Ry

     iteration #  5     ecut=    30.00 Ry     beta= 0.70
     Davidson diagonalization with overlap
     ethr =  4.23E-08,  avg # of iterations =  4.3

     total cpu time spent up to now is       48.2 secs

     total energy              =    -333.18304181 Ry
     estimated scf accuracy    <       0.00000153 Ry

     iteration #  6     ecut=    30.00 Ry     beta= 0.70
     Davidson diagonalization with overlap
     ethr =  3.48E-09,  avg # of iterations =  4.8

     total cpu time spent up to now is       48.7 secs

     total energy              =    -333.18304126 Ry
     estimated scf accuracy    <       0.00000085 Ry

     iteration #  7     ecut=    30.00 Ry     beta= 0.70
     Davidson diagonalization with overlap
     ethr =  1.93E-09,  avg # of iterations =  4.5

     total cpu time spent up to now is       49.1 secs

     total energy              =    -333.18304139 Ry
     estimated scf accuracy    <       0.00000003 Ry

     iteration #  8     ecut=    30.00 Ry     beta= 0.70
     Davidson diagonalization with overlap
     ethr =  7.09E-11,  avg # of iterations =  5.8

     total cpu time spent up to now is       49.5 secs

     total energy              =    -333.18304141 Ry
     estimated scf accuracy    <       0.00000001 Ry

     iteration #  9     ecut=    30.00 Ry     beta= 0.70
     Davidson diagonalization with overlap
     ethr =  3.33E-11,  avg # of iterations =  3.8

     total cpu time spent up to now is       50.0 secs

     End of self-consistent calculation

          k = 0.1250 0.1250 0.1250 (  1090 PWs)   bands (ev):

   -44.6766 -21.2886 -21.2875 -21.2784  -6.3582  -5.3085  -5.2504  -3.9365
    -3.9352  -3.9196  -3.7578  -3.7335   4.6686   7.2947   7.3054   8.1045
     9.1320   9.1362   9.8878   9.9505   9.9731  10.1121

          k = 0.1250 0.1250 0.3750 (  1095 PWs)   bands (ev):

   -44.6754 -21.3361 -21.2863 -21.2854  -5.9690  -5.1976  -5.0612  -3.9895
    -3.9285  -3.9167  -3.8302  -3.7240   3.9560   6.8529   7.3469   7.8152
     8.4263   8.7573   9.3623   9.9482  10.0746  10.8820

          k = 0.1250 0.3750 0.3750 (  1087 PWs)   bands (ev):

   -44.6742 -21.3426 -21.3325 -21.2837  -5.7504  -5.0423  -4.9352  -3.9672
    -3.9250  -3.8683  -3.7758  -3.6172   3.5743   6.7856   6.8385   7.1620
     7.4820   8.6529   9.4086   9.5003  10.0869  10.7323

          k = 0.3750 0.3750 0.3750 (  1082 PWs)   bands (ev):

   -44.6729 -21.3401 -21.3398 -21.3300  -5.3286  -5.1744  -5.1222  -3.8793
    -3.8782  -3.5938  -3.5221  -3.5137   4.1337   5.9182   5.9599   6.7055
     7.0025   7.0267   8.0754  10.6497  10.6919  10.7619

          k = 0.3750-0.1250 0.1250 (  1095 PWs)   bands (ev):

   -44.6754 -21.3461 -21.2859 -21.2763  -5.9411  -5.1673  -5.1219  -3.9966
    -3.9288  -3.9153  -3.8257  -3.7120   3.9280   6.8100   7.3268   7.8482
     8.4423   8.7341   9.3876   9.9315  10.1131  10.8944

          k = 0.3750-0.3750 0.1250 (  1087 PWs)   bands (ev):

   -44.6741 -21.3430 -21.3420 -21.2742  -5.6905  -5.0589  -5.0001  -3.9683
    -3.9150  -3.8469  -3.7587  -3.6348   3.5209   6.7861   6.8202   7.1823
     7.4915   8.6928   9.4575   9.4924  10.0874  10.6910

     highest occupied level (ev):    10.8944

!    total energy              =    -333.18304141 Ry
     estimated scf accuracy    <          3.9E-10 Ry

     The total energy is the sum of the following terms:
     one-electron contribution =     -77.06888101 Ry
     hartree contribution      =      66.51415159 Ry
     xc contribution           =     -49.65533023 Ry
     ewald contribution        =    -272.97298176 Ry

     convergence has been achieved in   9 iterations

     Forces acting on atoms (cartesian axes, Ry/au):

     atom    1 type  2   force =     0.00000000    0.00000000    0.01041596
     atom    2 type  3   force =     0.00000000    0.00000000   -0.01726113
     atom    3 type  1   force =     0.00000000    0.00000000    0.00617645
     atom    4 type  1   force =     0.00000000    0.00000000    0.00617645
     atom    5 type  1   force =     0.00000000    0.00000000   -0.00550774

     Total force =     0.010326     Total SCF correction =     0.000008


     Computing stress (Cartesian axis) and pressure

          total   stress  (Ry/bohr**3)                   (kbar)     P=       -9.97
  -0.00005890   0.00000000   0.00000000           -8.66        0.00        0.00
   0.00000000  -0.00005890   0.00000000            0.00       -8.66        0.00
   0.00000000   0.00000000  -0.00008559            0.00        0.00      -12.59

     Energy error            =      8.0E-04 Ry
     Gradient error          =      6.2E-03 Ry/Bohr

     number of scf cycles    =   9
     number of bfgs steps    =   8

     energy             old  =    -333.1822408706 Ry
     energy             new  =    -333.1830414085 Ry

     CASE: energy            _new < energy            _old


     WARNING: bfgs curvature condition failed, Theta= 0.709
     new trust radius        =       0.1424588852 bohr
     new conv_thr            =       0.0000000062 Ry


ATOMIC_POSITIONS (angstrom)
Pb               0.0000000000        0.0000000000        0.0000000000    0   0   0
Ti               1.9375000000        1.9375000000        2.0925000000    0   0   0
O                0.0000000000        1.9375000000        2.1554181902
O                1.9375000000        0.0000000000        2.1554181902
O                1.9375000000        1.9375000000        0.1902317721


     Message from routine punch:
     Nothing written, as per user request (disk_io='none')
     NEW-OLD atomic charge density approx. for the potential

     total cpu time spent up to now is       51.4 secs

     Self-consistent Calculation

     iteration #  1     ecut=    30.00 Ry     beta= 0.70
     Davidson diagonalization with overlap
     ethr =  1.00E-06,  avg # of iterations = 10.7

     total cpu time spent up to now is       52.1 secs

     total energy              =    -333.18372873 Ry
     estimated scf accuracy    <       0.00357087 Ry

     iteration #  2     ecut=    30.00 Ry     beta= 0.70
     Davidson diagonalization with overlap
     ethr =  8.12E-06,  avg # of iterations =  2.2

     total cpu time spent up to now is       52.5 secs

     total energy              =    -333.18421811 Ry
     estimated scf accuracy    <       0.00020749 Ry

     iteration #  3     ecut=    30.00 Ry     beta= 0.70
     Davidson diagonalization with overlap
     ethr =  4.72E-07,  avg # of iterations =  3.5

     total cpu time spent up to now is       52.9 secs

     total energy              =    -333.18426206 Ry
     estimated scf accuracy    <       0.00004285 Ry

     iteration #  4     ecut=    30.00 Ry     beta= 0.70
     Davidson diagonalization with overlap
     ethr =  9.74E-08,  avg # of iterations =  4.3

     total cpu time spent up to now is       53.3 secs

     total energy              =    -333.18427111 Ry
     estimated scf accuracy    <       0.00000969 Ry

     iteration #  5     ecut=    30.00 Ry     beta= 0.70
     Davidson diagonalization with overlap
     ethr =  2.20E-08,  avg # of iterations =  4.5

     total cpu time spent up to now is       53.7 secs

     total energy              =    -333.18427369 Ry
     estimated scf accuracy    <       0.00000230 Ry

     iteration #  6     ecut=    30.00 Ry     beta= 0.70
     Davidson diagonalization with overlap
     ethr =  5.22E-09,  avg # of iterations =  4.2

     total cpu time spent up to now is       54.1 secs

     total energy              =    -333.18427410 Ry
     estimated scf accuracy    <       0.00000003 Ry

     iteration #  7     ecut=    30.00 Ry     beta= 0.70
     Davidson diagonalization with overlap
     ethr =  7.46E-11,  avg # of iterations =  6.8

     total cpu time spent up to now is       54.6 secs

     total energy              =    -333.18427415 Ry
     estimated scf accuracy    <       0.00000003 Ry

     iteration #  8     ecut=    30.00 Ry     beta= 0.70
     Davidson diagonalization with overlap
     ethr =  5.80E-11,  avg # of iterations =  4.0

     total cpu time spent up to now is       55.0 secs

     End of self-consistent calculation

          k = 0.1250 0.1250 0.1250 (  1090 PWs)   bands (ev):

   -44.6914 -21.3048 -21.3036 -21.2919  -6.3962  -5.3641  -5.2449  -3.9079
    -3.9068  -3.8861  -3.7339  -3.6792   4.6799   7.2554   7.3009   8.0960
     9.1045   9.1265   9.8380   9.8735   9.9356  10.1936

          k = 0.1250 0.1250 0.3750 (  1095 PWs)   bands (ev):

   -44.6902 -21.3495 -21.3024 -21.3015  -6.0262  -5.2621  -5.0409  -3.9544
    -3.8964  -3.8842  -3.7738  -3.6974   3.9785   6.8589   7.2908   7.7611
     8.4480   8.7462   9.3317   9.9165  10.0254  10.8949

          k = 0.1250 0.3750 0.3750 (  1087 PWs)   bands (ev):

   -44.6889 -21.3586 -21.3458 -21.2998  -5.8007  -5.1055  -4.9280  -3.9350
    -3.8928  -3.8346  -3.7368  -3.5695   3.5961   6.7071   6.8693   7.1288
     7.4637   8.6191   9.3703   9.4906  10.1196  10.7175

          k = 0.3750 0.3750 0.3750 (  1082 PWs)   bands (ev):

   -44.6876 -21.3562 -21.3559 -21.3433  -5.3736  -5.2292  -5.1123  -3.8466
    -3.8464  -3.5701  -3.4856  -3.4719   4.0946   5.8943   5.9636   6.6703
     6.9957   7.0313   8.1567  10.5938  10.6796  10.7508

          k = 0.3750-0.1250 0.1250 (  1095 PWs)   bands (ev):

   -44.6902 -21.3622 -21.3020 -21.2898  -5.9739  -5.2140  -5.1538  -3.9663
    -3.8988  -3.8807  -3.7719  -3.6681   3.9319   6.7808   7.3035   7.8321
     8.4084   8.7299   9.3760   9.9001  10.0763  10.9179

          k = 0.3750-0.3750 0.1250 (  1087 PWs)   bands (ev):

   -44.6889 -21.3590 -21.3581 -21.2877  -5.6868  -5.1205  -5.0769  -3.9375
    -3.8757  -3.7915  -3.6989  -3.6033   3.4859   6.7514   6.7938   7.1814
     7.5087   8.7024   9.4536   9.4826  10.1193  10.6359

     highest occupied level (ev):    10.9179

!    total energy              =    -333.18427415 Ry
     estimated scf accuracy    <          2.0E-09 Ry

     The total energy is the sum of the following terms:
     one-electron contribution =     -77.59857199 Ry
     hartree contribution      =      66.77634581 Ry
     xc contribution           =     -49.66498113 Ry
     ewald contribution        =    -272.69706684 Ry

     convergence has been achieved in   8 iterations

     Forces acting on atoms (cartesian axes, Ry/au):

     atom    1 type  2   force =     0.00000000    0.00000000    0.00807969
     atom    2 type  3   force =     0.00000000    0.00000000   -0.01765143
     atom    3 type  1   force =     0.00000000    0.00000000    0.00275381
     atom    4 type  1   force =     0.00000000    0.00000000    0.00275381
     atom    5 type  1   force =     0.00000000    0.00000000    0.00406412

     Total force =     0.005629     Total SCF correction =     0.000017


     Computing stress (Cartesian axis) and pressure

          total   stress  (Ry/bohr**3)                   (kbar)     P=       -5.41
  -0.00003505   0.00000000   0.00000000           -5.16        0.00        0.00
   0.00000000  -0.00003505   0.00000000            0.00       -5.16        0.00
   0.00000000   0.00000000  -0.00004034            0.00        0.00       -5.93

     Energy error            =      1.2E-03 Ry
     Gradient error          =      4.1E-03 Ry/Bohr

     number of scf cycles    =  10
     number of bfgs steps    =   9

     energy             old  =    -333.1830414085 Ry
     energy             new  =    -333.1842741501 Ry

     CASE: energy            _new < energy            _old


     WARNING: info= 15 for Hessian

     WARNING: bfgs curvature condition failed, Theta= 0.987
     new trust radius        =       0.2136883277 bohr
     new conv_thr            =       0.0000000041 Ry


ATOMIC_POSITIONS (angstrom)
Pb               0.0000000000        0.0000000000        0.0000000000    0   0   0
Ti               1.9375000000        1.9375000000        2.0925000000    0   0   0
O                0.0000000000        1.9375000000        2.2684971835
O                1.9375000000        0.0000000000        2.2684971835
O                1.9375000000        1.9375000000        0.2487065223


     Message from routine punch:
     Nothing written, as per user request (disk_io='none')
     NEW-OLD atomic charge density approx. for the potential

     total cpu time spent up to now is       56.6 secs

     Self-consistent Calculation

     iteration #  1     ecut=    30.00 Ry     beta= 0.70
     Davidson diagonalization with overlap
     ethr =  1.00E-06,  avg # of iterations = 11.3

     total cpu time spent up to now is       57.3 secs

     total energy              =    -333.18371251 Ry
     estimated scf accuracy    <       0.00794983 Ry

     iteration #  2     ecut=    30.00 Ry     beta= 0.70
     Davidson diagonalization with overlap
     ethr =  1.81E-05,  avg # of iterations =  2.2

     total cpu time spent up to now is       57.7 secs

     total energy              =    -333.18483682 Ry
     estimated scf accuracy    <       0.00060380 Ry

     iteration #  3     ecut=    30.00 Ry     beta= 0.70
     Davidson diagonalization with overlap
     ethr =  1.37E-06,  avg # of iterations =  3.7

     total cpu time spent up to now is       58.1 secs

     total energy              =    -333.18495350 Ry
     estimated scf accuracy    <       0.00025727 Ry

     iteration #  4     ecut=    30.00 Ry     beta= 0.70
     Davidson diagonalization with overlap
     ethr =  5.85E-07,  avg # of iterations =  4.0

     total cpu time spent up to now is       58.8 secs

     total energy              =    -333.18501598 Ry
     estimated scf accuracy    <       0.00004332 Ry

     iteration #  5     ecut=    30.00 Ry     beta= 0.70
     Davidson diagonalization with overlap
     ethr =  9.85E-08,  avg # of iterations =  3.5

     total cpu time spent up to now is       59.5 secs

     total energy              =    -333.18502534 Ry
     estimated scf accuracy    <       0.00000123 Ry

     iteration #  6     ecut=    30.00 Ry     beta= 0.70
     Davidson diagonalization with overlap
     ethr =  2.79E-09,  avg # of iterations =  5.8

     total cpu time spent up to now is       60.7 secs

     total energy              =    -333.18502600 Ry
     estimated scf accuracy    <       0.00000185 Ry

     iteration #  7     ecut=    30.00 Ry     beta= 0.70
     Davidson diagonalization with overlap
     ethr =  2.79E-09,  avg # of iterations =  4.2

     total cpu time spent up to now is       61.4 secs

     total energy              =    -333.18502625 Ry
     estimated scf accuracy    <       0.00000017 Ry

     iteration #  8     ecut=    30.00 Ry     beta= 0.70
     Davidson diagonalization with overlap
     ethr =  3.78E-10,  avg # of iterations =  3.5

     total cpu time spent up to now is       61.8 secs

     total energy              =    -333.18502628 Ry
     estimated scf accuracy    <       0.00000001 Ry

     iteration #  9     ecut=    30.00 Ry     beta= 0.70
     Davidson diagonalization with overlap
     ethr =  3.21E-11,  avg # of iterations =  5.0

     total cpu time spent up to now is       62.2 secs

     total energy              =    -333.18502629 Ry
     estimated scf accuracy    <          8.5E-09 Ry

     iteration # 10     ecut=    30.00 Ry     beta= 0.70
     Davidson diagonalization with overlap
     ethr =  1.93E-11,  avg # of iterations =  2.2

     total cpu time spent up to now is       62.6 secs

     End of self-consistent calculation

          k = 0.1250 0.1250 0.1250 (  1090 PWs)   bands (ev):

   -44.6939 -21.3130 -21.3051 -21.3048  -6.4786  -5.4528  -5.2381  -3.8482
    -3.8462  -3.8136  -3.6813  -3.5567   4.7012   7.1460   7.2843   8.0559
[...]

     total cpu time spent up to now is       67.9 secs

     End of self-consistent calculation

          k = 0.1250 0.1250 0.1250 (  1090 PWs)   bands (ev):

   -44.6800 -21.3068 -21.2918 -21.2911  -6.4736  -5.4483  -5.2431  -3.8526
    -3.8503  -3.8188  -3.6862  -3.5625   4.6976   7.1548   7.2851   8.0661
     9.0437   9.0482   9.6601   9.7411   9.8974  10.2713

          k = 0.1250 0.1250 0.3750 (  1095 PWs)   bands (ev):

   -44.6788 -21.3642 -21.2898 -21.2889  -6.1221  -5.3592  -5.0268  -3.8910
    -3.8348  -3.8173  -3.6510  -3.6470   3.9995   6.8430   7.0958   7.6544
     8.5429   8.6524   9.3157   9.8168   9.9546  10.9602

          k = 0.1250 0.3750 0.3750 (  1087 PWs)   bands (ev):

   -44.6775 -21.3606 -21.3451 -21.2873  -5.8822  -5.2266  -4.9382  -3.8744
    -3.8275  -3.7706  -3.6566  -3.4661   3.6341   6.5665   6.9025   7.0989
     7.4078   8.5932   9.3095   9.4451  10.1992  10.6578

          k = 0.3750 0.3750 0.3750 (  1082 PWs)   bands (ev):

   -44.6762 -21.3581 -21.3427 -21.3426  -5.4693  -5.3306  -5.1112  -3.7840
    -3.7811  -3.5278  -3.4133  -3.3808   4.0121   5.8669   5.9568   6.5902
     7.0840   7.1018   8.3248  10.5027  10.6119  10.6954

          k = 0.3750-0.1250 0.1250 (  1095 PWs)   bands (ev):

   -44.6788 -21.3490 -21.3042 -21.2893  -6.0485  -5.3155  -5.1968  -3.9039
    -3.8403  -3.8136  -3.6729  -3.5695   3.9357   6.7610   7.2754   7.7887
     8.3356   8.7631   9.3135   9.8170   9.9466  10.9536

          k = 0.3750-0.3750 0.1250 (  1087 PWs)   bands (ev):

   -44.6775 -21.3460 -21.3449 -21.3018  -5.7179  -5.2233  -5.2117  -3.8731
    -3.8039  -3.6882  -3.5767  -3.5438   3.4190   6.7029   6.7893   7.1905
     7.5617   8.7255   9.4618   9.4747  10.1725  10.5438

     highest occupied level (ev):    10.9602

!    total energy              =    -333.18535629 Ry
     estimated scf accuracy    <          2.8E-11 Ry

     The total energy is the sum of the following terms:
     one-electron contribution =     -78.63232951 Ry
     hartree contribution      =      67.30100561 Ry
     xc contribution           =     -49.68910467 Ry
     ewald contribution        =    -272.16492772 Ry

     convergence has been achieved in   9 iterations

     Forces acting on atoms (cartesian axes, Ry/au):

     atom    1 type  2   force =     0.00000000    0.00000000    0.00811532
     atom    2 type  3   force =     0.00000000    0.00000000   -0.01271418
     atom    3 type  1   force =     0.00000000    0.00000000   -0.00358135
     atom    4 type  1   force =     0.00000000    0.00000000   -0.00358135
     atom    5 type  1   force =     0.00000000    0.00000000    0.01176156

     Total force =     0.012806     Total SCF correction =     0.000005


     Computing stress (Cartesian axis) and pressure

          total   stress  (Ry/bohr**3)                   (kbar)     P=        6.29
  -0.00000036   0.00000000   0.00000000           -0.05        0.00        0.00
   0.00000000  -0.00000036   0.00000000            0.00       -0.05        0.00
   0.00000000   0.00000000   0.00012892            0.00        0.00       18.97

     Energy error            =      3.3E-04 Ry
     Gradient error          =      1.2E-02 Ry/Bohr

     number of scf cycles    =  12
     number of bfgs steps    =  11

     energy             old  =    -333.1850262880 Ry
     energy             new  =    -333.1853562902 Ry

     CASE: energy            _new < energy            _old

     new trust radius        =       0.0201210883 bohr
     new conv_thr            =       0.0000000033 Ry


ATOMIC_POSITIONS (angstrom)
Pb               0.0000000000        0.0000000000        0.0000000000    0   0   0
Ti               1.9375000000        1.9375000000        2.0925000000    0   0   0
O                0.0000000000        1.9375000000        2.2621204413
O                1.9375000000        0.0000000000        2.2621204413
O                1.9375000000        1.9375000000        0.2690337995


     Message from routine punch:
     Nothing written, as per user request (disk_io='none')
     NEW-OLD atomic charge density approx. for the potential

     total cpu time spent up to now is       69.3 secs

     Self-consistent Calculation

     iteration #  1     ecut=    30.00 Ry     beta= 0.70
     Davidson diagonalization with overlap
     ethr =  1.00E-06,  avg # of iterations =  4.2

     total cpu time spent up to now is       69.8 secs

     total energy              =    -333.18551448 Ry
     estimated scf accuracy    <       0.00009227 Ry

     iteration #  2     ecut=    30.00 Ry     beta= 0.70
     Davidson diagonalization with overlap
     ethr =  2.10E-07,  avg # of iterations =  4.8

     total cpu time spent up to now is       70.3 secs

     total energy              =    -333.18552682 Ry
     estimated scf accuracy    <       0.00006207 Ry

     iteration #  3     ecut=    30.00 Ry     beta= 0.70
     Davidson diagonalization with overlap
     ethr =  1.41E-07,  avg # of iterations =  4.5

     total cpu time spent up to now is       70.7 secs

     total energy              =    -333.18554201 Ry
     estimated scf accuracy    <       0.00001919 Ry

     iteration #  4     ecut=    30.00 Ry     beta= 0.70
     Davidson diagonalization with overlap
     ethr =  4.36E-08,  avg # of iterations =  3.7

     total cpu time spent up to now is       71.2 secs

     total energy              =    -333.18554467 Ry
     estimated scf accuracy    <       0.00000070 Ry

     iteration #  5     ecut=    30.00 Ry     beta= 0.70
     Davidson diagonalization with overlap
     ethr =  1.60E-09,  avg # of iterations =  5.8

     total cpu time spent up to now is       71.7 secs

     total energy              =    -333.18554541 Ry
     estimated scf accuracy    <       0.00000126 Ry

     iteration #  6     ecut=    30.00 Ry     beta= 0.70
     Davidson diagonalization with overlap
     ethr =  1.60E-09,  avg # of iterations =  2.7

     total cpu time spent up to now is       72.1 secs

     total energy              =    -333.18554529 Ry
     estimated scf accuracy    <       0.00000061 Ry

     iteration #  7     ecut=    30.00 Ry     beta= 0.70
     Davidson diagonalization with overlap
     ethr =  1.38E-09,  avg # of iterations =  4.3

     total cpu time spent up to now is       72.5 secs

     total energy              =    -333.18554542 Ry
     estimated scf accuracy    <          8.9E-09 Ry

     iteration #  8     ecut=    30.00 Ry     beta= 0.70
     Davidson diagonalization with overlap
     ethr =  2.03E-11,  avg # of iterations =  6.0

     total cpu time spent up to now is       73.0 secs

     total energy              =    -333.18554543 Ry
     estimated scf accuracy    <       0.00000002 Ry

     iteration #  9     ecut=    30.00 Ry     beta= 0.70
     Davidson diagonalization with overlap
     ethr =  2.03E-11,  avg # of iterations =  4.2

     total cpu time spent up to now is       73.4 secs

     End of self-consistent calculation

          k = 0.1250 0.1250 0.1250 (  1090 PWs)   bands (ev):

   -44.6639 -21.3002 -21.2760 -21.2751  -6.4681  -5.4433  -5.2484  -3.8574
    -3.8549  -3.8245  -3.6916  -3.5687   4.6935   7.1637   7.2858   8.0775
     9.0350   9.0429   9.6403   9.7408   9.8989  10.2610

          k = 0.1250 0.1250 0.3750 (  1095 PWs)   bands (ev):

   -44.6626 -21.3579 -21.2739 -21.2730  -6.1142  -5.3535  -5.0335  -3.8960
    -3.8393  -3.8231  -3.6574  -3.6532   3.9902   6.8446   7.1038   7.6665
     8.5308   8.6456   9.3078   9.8169   9.9598  10.9575

          k = 0.1250 0.3750 0.3750 (  1087 PWs)   bands (ev):

   -44.6613 -21.3543 -21.3294 -21.2713  -5.8760  -5.2199  -4.9443  -3.8794
    -3.8327  -3.7765  -3.6622  -3.4709   3.6301   6.5610   6.9025   7.1045
     7.4111   8.5966   9.3124   9.4303  10.1919  10.6529

          k = 0.3750 0.3750 0.3750 (  1082 PWs)   bands (ev):

   -44.6601 -21.3517 -21.3270 -21.3269  -5.4631  -5.3248  -5.1154  -3.7895
    -3.7857  -3.5350  -3.4189  -3.3850   4.0138   5.8649   5.9535   6.5944
     7.0845   7.0990   8.3171  10.5084  10.6025  10.6877

          k = 0.3750-0.1250 0.1250 (  1095 PWs)   bands (ev):

   -44.6626 -21.3333 -21.2978 -21.2734  -6.0438  -5.3102  -5.2004  -3.9086
    -3.8449  -3.8198  -3.6780  -3.5752   3.9351   6.7631   7.2734   7.7956
     8.3344   8.7605   9.2977   9.8153   9.9390  10.9486

          k = 0.3750-0.3750 0.1250 (  1087 PWs)   bands (ev):

   -44.6613 -21.3302 -21.3291 -21.2954  -5.7186  -5.2201  -5.2046  -3.8775
    -3.8094  -3.6942  -3.5827  -3.5511   3.4213   6.7065   6.7956   7.1837
     7.5537   8.7229   9.4525   9.4672  10.1666  10.5485

     highest occupied level (ev):    10.9575

!    total energy              =    -333.18554543 Ry
     estimated scf accuracy    <          7.9E-10 Ry

     The total energy is the sum of the following terms:
     one-electron contribution =     -78.65815740 Ry
     hartree contribution      =      67.31683624 Ry
     xc contribution           =     -49.69210936 Ry
     ewald contribution        =    -272.15211492 Ry

     convergence has been achieved in   9 iterations

     Forces acting on atoms (cartesian axes, Ry/au):

     atom    1 type  2   force =     0.00000000    0.00000000    0.00808532
     atom    2 type  3   force =     0.00000000    0.00000000   -0.01035722
     atom    3 type  1   force =     0.00000000    0.00000000   -0.00104169
     atom    4 type  1   force =     0.00000000    0.00000000   -0.00104169
     atom    5 type  1   force =     0.00000000    0.00000000    0.00435528

     Total force =     0.004598     Total SCF correction =     0.000010


     Computing stress (Cartesian axis) and pressure

          total   stress  (Ry/bohr**3)                   (kbar)     P=        8.35
   0.00000472   0.00000000   0.00000000            0.69        0.00        0.00
   0.00000000   0.00000472   0.00000000            0.00        0.69        0.00
   0.00000000   0.00000000   0.00016086            0.00        0.00       23.66

     Energy error            =      1.9E-04 Ry
     Gradient error          =      4.4E-03 Ry/Bohr

     number of scf cycles    =  13
     number of bfgs steps    =  12

     energy             old  =    -333.1853562902 Ry
     energy             new  =    -333.1855454272 Ry

     CASE: energy            _new < energy            _old

     new trust radius        =       0.0114650342 bohr
     new conv_thr            =       0.0000000019 Ry


ATOMIC_POSITIONS (angstrom)
Pb               0.0000000000        0.0000000000        0.0000000000    0   0   0
Ti               1.9375000000        1.9375000000        2.0925000000    0   0   0
O                0.0000000000        1.9375000000        2.2605071719
O                1.9375000000        0.0000000000        2.2605071719
O                1.9375000000        1.9375000000        0.2751008343


     Message from routine punch:
     Nothing written, as per user request (disk_io='none')
     NEW-OLD atomic charge density approx. for the potential

     total cpu time spent up to now is       74.8 secs

     Self-consistent Calculation

     iteration #  1     ecut=    30.00 Ry     beta= 0.70
     Davidson diagonalization with overlap
     ethr =  1.00E-06,  avg # of iterations =  4.0

     Threshold (ethr) on eigenvalues was too large:
     Diagonalizing with lowered threshold

     Davidson diagonalization with overlap
     ethr =  5.93E-08,  avg # of iterations =  4.0

     total cpu time spent up to now is       75.5 secs

     total energy              =    -333.18556132 Ry
     estimated scf accuracy    <       0.00003219 Ry

     iteration #  2     ecut=    30.00 Ry     beta= 0.70
     Davidson diagonalization with overlap
     ethr =  7.32E-08,  avg # of iterations =  5.0

     total cpu time spent up to now is       76.0 secs

     total energy              =    -333.18556326 Ry
     estimated scf accuracy    <       0.00003286 Ry

     iteration #  3     ecut=    30.00 Ry     beta= 0.70
     Davidson diagonalization with overlap
     ethr =  7.32E-08,  avg # of iterations =  4.5

     total cpu time spent up to now is       76.4 secs

     total energy              =    -333.18557103 Ry
     estimated scf accuracy    <       0.00000619 Ry

     iteration #  4     ecut=    30.00 Ry     beta= 0.70
     Davidson diagonalization with overlap
     ethr =  1.41E-08,  avg # of iterations =  3.3

     total cpu time spent up to now is       76.8 secs

     total energy              =    -333.18557187 Ry
     estimated scf accuracy    <       0.00000037 Ry

     iteration #  5     ecut=    30.00 Ry     beta= 0.70
     Davidson diagonalization with overlap
     ethr =  8.34E-10,  avg # of iterations =  5.5

     total cpu time spent up to now is       77.3 secs

     total energy              =    -333.18557217 Ry
     estimated scf accuracy    <       0.00000032 Ry

     iteration #  6     ecut=    30.00 Ry     beta= 0.70
     Davidson diagonalization with overlap
     ethr =  7.34E-10,  avg # of iterations =  1.8

     total cpu time spent up to now is       77.6 secs

     total energy              =    -333.18557213 Ry
     estimated scf accuracy    <       0.00000015 Ry

     iteration #  7     ecut=    30.00 Ry     beta= 0.70
     Davidson diagonalization with overlap
     ethr =  3.38E-10,  avg # of iterations =  4.3

     total cpu time spent up to now is       78.0 secs

     total energy              =    -333.18557218 Ry
     estimated scf accuracy    <          9.8E-09 Ry

     iteration #  8     ecut=    30.00 Ry     beta= 0.70
     Davidson diagonalization with overlap
     ethr =  2.22E-11,  avg # of iterations =  4.2

     total cpu time spent up to now is       78.4 secs

     End of self-consistent calculation

          k = 0.1250 0.1250 0.1250 (  1090 PWs)   bands (ev):

   -44.6543 -21.2966 -21.2665 -21.2656  -6.4652  -5.4405  -5.2512  -3.8601
    -3.8574  -3.8277  -3.6947  -3.5720   4.6911   7.1683   7.2861   8.0839
     9.0271   9.0419   9.6290   9.7406   9.8999  10.2552

          k = 0.1250 0.1250 0.3750 (  1095 PWs)   bands (ev):

   -44.6530 -21.3544 -21.2644 -21.2635  -6.1099  -5.3504  -5.0372  -3.8987
    -3.8419  -3.8264  -3.6607  -3.6566   3.9848   6.8455   7.1074   7.6732
     8.5243   8.6411   9.3038   9.8168   9.9627  10.9561

          k = 0.1250 0.3750 0.3750 (  1087 PWs)   bands (ev):

   -44.6517 -21.3508 -21.3200 -21.2618  -5.8726  -5.2163  -4.9477  -3.8821
    -3.8356  -3.7797  -3.6652  -3.4735   3.6278   6.5578   6.9025   7.1076
     7.4127   8.5986   9.3136   9.4223  10.1877  10.6503

          k = 0.3750 0.3750 0.3750 (  1082 PWs)   bands (ev):

   -44.6505 -21.3482 -21.3176 -21.3175  -5.4598  -5.3218  -5.1178  -3.7926
    -3.7882  -3.5391  -3.4218  -3.3872   4.0146   5.8636   5.9514   6.5969
     7.0853   7.0976   8.3130  10.5115  10.5970  10.6834

          k = 0.3750-0.1250 0.1250 (  1095 PWs)   bands (ev):

   -44.6530 -21.3239 -21.2942 -21.2640  -6.0412  -5.3074  -5.2022  -3.9112
    -3.8475  -3.8233  -3.6807  -3.5783   3.9347   6.7644   7.2720   7.7991
     8.3336   8.7589   9.2885   9.8144   9.9346  10.9458

          k = 0.3750-0.3750 0.1250 (  1087 PWs)   bands (ev):

   -44.6518 -21.3208 -21.3197 -21.2918  -5.7190  -5.2183  -5.2008  -3.8800
    -3.8124  -3.6975  -3.5858  -3.5552   3.4224   6.7085   6.7992   7.1797
     7.5491   8.7215   9.4477   9.4631  10.1636  10.5510

     highest occupied level (ev):    10.9561

!    total energy              =    -333.18557218 Ry
     estimated scf accuracy    <          1.5E-09 Ry

     The total energy is the sum of the following terms:
     one-electron contribution =     -78.68049206 Ry
     hartree contribution      =      67.32986295 Ry
     xc contribution           =     -49.69401560 Ry
     ewald contribution        =    -272.14092748 Ry

     convergence has been achieved in   8 iterations

     Forces acting on atoms (cartesian axes, Ry/au):

     atom    1 type  2   force =     0.00000000    0.00000000    0.00806931
     atom    2 type  3   force =     0.00000000    0.00000000   -0.00885861
     atom    3 type  1   force =     0.00000000    0.00000000    0.00035738
     atom    4 type  1   force =     0.00000000    0.00000000    0.00035738
     atom    5 type  1   force =     0.00000000    0.00000000    0.00007455

     Total force =     0.000511     Total SCF correction =     0.000003


     Computing stress (Cartesian axis) and pressure

          total   stress  (Ry/bohr**3)                   (kbar)     P=        9.62
   0.00000781   0.00000000   0.00000000            1.15        0.00        0.00
   0.00000000   0.00000781   0.00000000            0.00        1.15        0.00
   0.00000000   0.00000000   0.00018065            0.00        0.00       26.57

     Energy error            =      2.7E-05 Ry
     Gradient error          =      3.6E-04 Ry/Bohr

     bfgs converged in  14 scf cycles and  13 bfgs steps
     (criteria: energy <  1.0E-04 Ry, force <  1.0E-03 Ry/Bohr)

     End of BFGS Geometry Optimization

     Final energy             =    -333.1855721809 Ry

     File /home/bond/Work/Lab4/Problem2/PbTiO3_a_3.875_ecut_30_nk_4_displ_0.04000000000000002/pwscf.bfgs deleted, as requested
Begin final coordinates

ATOMIC_POSITIONS (angstrom)
Pb               0.0000000000        0.0000000000        0.0000000000    0   0   0
Ti               1.9375000000        1.9375000000        2.0925000000    0   0   0
O                0.0000000000        1.9375000000        2.2605071719
O                1.9375000000        0.0000000000        2.2605071719
O                1.9375000000        1.9375000000        0.2751008343
End final coordinates


     Message from routine punch:
     Nothing written, as per user request (disk_io='none')

     init_run     :      1.13s CPU      1.19s WALL (       1 calls)
     electrons    :     50.09s CPU     57.65s WALL (      14 calls)
     update_pot   :      0.07s CPU      0.07s WALL (      13 calls)
     forces       :      1.94s CPU      2.30s WALL (      14 calls)
     stress       :     15.68s CPU     16.67s WALL (      14 calls)

     Called by init_run:
     wfcinit      :      0.07s CPU      0.08s WALL (       1 calls)
     potinit      :      0.08s CPU      0.08s WALL (       1 calls)
     hinit0       :      0.80s CPU      0.81s WALL (       1 calls)

     Called by electrons:
     c_bands      :     22.56s CPU     24.04s WALL (     131 calls)
     sum_band     :     15.33s CPU     18.53s WALL (     131 calls)
     v_of_rho     :      0.43s CPU      0.44s WALL (     144 calls)
     newd         :     12.52s CPU     15.69s WALL (     144 calls)
     mix_rho      :      0.23s CPU      0.25s WALL (     131 calls)

     Called by c_bands:
     init_us_2    :      0.64s CPU      0.68s WALL (    1746 calls)
     cegterg      :     21.19s CPU     22.59s WALL (     786 calls)

     Called by *egterg:
     cdiaghg      :      2.86s CPU      3.02s WALL (    4199 calls)
     h_psi        :     14.47s CPU     15.51s WALL (    4289 calls)
     s_psi        :      0.62s CPU      0.67s WALL (    4289 calls)
     g_psi        :      0.10s CPU      0.11s WALL (    3497 calls)

     Called by h_psi:
     h_psi:calbec :      1.07s CPU      1.17s WALL (    4289 calls)
     vloc_psi     :     12.58s CPU     13.45s WALL (    4289 calls)
     add_vuspsi   :      0.70s CPU      0.76s WALL (    4289 calls)

     General routines
     calbec       :      1.75s CPU      1.90s WALL (    6503 calls)
     fft          :      0.81s CPU      0.84s WALL (     920 calls)
     ffts         :      0.08s CPU      0.08s WALL (     275 calls)
     fftw         :     11.47s CPU     12.31s WALL (  125250 calls)
     interpolate  :      0.17s CPU      0.17s WALL (     144 calls)

     Parallel routines

     PWSCF        :   1m10.43s CPU   1m19.77s WALL


   This run was terminated on:  12:47:37  21Oct2025            

=------------------------------------------------------------------------------=
   JOB DONE.
=------------------------------------------------------------------------------=
