
     Program PWSCF v.7.4.1 starts on  9Oct2025 at 13: 2:11 

     This program is part of the open-source Quantum ESPRESSO suite
     for quantum simulation of materials; please cite
         "P. Giannozzi et al., J. Phys.:Condens. Matter 21 395502 (2009);
         "P. Giannozzi et al., J. Phys.:Condens. Matter 29 465901 (2017);
         "P. Giannozzi et al., J. Chem. Phys. 152 154105 (2020);
          URL http://www.quantum-espresso.org", 
     in publications or presentations arising from this work. More details at
     http://www.quantum-espresso.org/quote

     Parallel version (MPI), running on     1 processors

     MPI processes distributed on     1 nodes
     313 MiB available memory on the printing compute node when the environment starts

     Waiting for input...
     Reading input from standard input
Warning: card &CELL ignored
Warning: card / ignored

     Current dimensions of program PWSCF are:
     Max number of different atomic species (ntypx) = 10
     Max number of k-points (npk) =  40000
     Max angular momentum in pseudopotentials (lmaxx) =  4
     Message from routine setup:
     using ibrav=0 with symmetry is DISCOURAGED, use correct ibrav instead

     Subspace diagonalization in iterative solution of the eigenvalue problem:
     a serial algorithm will be used


     G-vector sticks info
     --------------------
     sticks:   dense  smooth     PW     G-vecs:    dense   smooth      PW
     Sum         637     637    199                10489    10489    1807

     Using Slab Decomposition



     bravais-lattice index     =            0
     lattice parameter (alat)  =       7.5872  a.u.
     unit-cell volume          =     308.8323 (a.u.)^3
     number of atoms/cell      =            2
     number of atomic types    =            1
     number of electrons       =        28.00
     number of Kohn-Sham states=           14
     kinetic-energy cutoff     =      40.0000  Ry
     charge density cutoff     =     160.0000  Ry
     scf convergence threshold =      1.0E-07
     mixing beta               =       0.5000
     number of iterations used =            8  plain     mixing
     Exchange-correlation=  SLA  PZ   NOGX NOGC
                           (   1   1   0   0   0   0   0)

     celldm(1)=   7.587160  celldm(2)=   0.000000  celldm(3)=   0.000000
     celldm(4)=   0.000000  celldm(5)=   0.000000  celldm(6)=   0.000000

     crystal axes: (cart. coord. in units of alat)
               a(1) = (   0.000000   0.707107   0.707107 )  
               a(2) = (   0.707107   0.000000   0.707107 )  
               a(3) = (   0.707107   0.707107   0.000000 )  

     reciprocal axes: (cart. coord. in units 2 pi/alat)
               b(1) = ( -0.707107  0.707107  0.707107 )  
               b(2) = (  0.707107 -0.707107  0.707107 )  
               b(3) = (  0.707107  0.707107 -0.707107 )  


     PseudoPot. # 1 for Ge read from file:
     /home/bond/Software/QE/qe-7.4.1/pseudo/ge_lda_v1.4.uspp.F.UPF
     MD5 check sum: bf9d52b59cc8a669818bb2b52e0c2ba0
     Pseudo is Ultrasoft + core correction, Zval = 14.0
     Generated by new atomic code, or converted to UPF format
     Using radial grid of  873 points,  6 beta functions with: 
                l(1) =   0
                l(2) =   0
                l(3) =   1
                l(4) =   1
                l(5) =   2
                l(6) =   2
     Q(r) pseudized with  8 coefficients,  rinner =    1.400   1.400   1.400
                                                       1.400   1.400

     atomic species   valence    mass     pseudopotential
     Ge               14.00    72.63000     Ge( 1.00)

     48 Sym. Ops., with inversion, found (24 have fractional translation)



   Cartesian axes

     site n.     atom                  positions (alat units)
         1        Ge     tau(   1) = (   0.0000000   0.0000000   0.0000000  )
         2        Ge     tau(   2) = (   0.3535534   0.3535534   0.3535534  )

     number of k points=     8
                       cart. coord. in units 2pi/alat
        k(    1) = (   0.0000000   0.0000000   0.0000000), wk =   0.0312500
        k(    2) = (   0.1767767   0.1767767  -0.1767767), wk =   0.2500000
        k(    3) = (  -0.3535534  -0.3535534   0.3535534), wk =   0.1250000
        k(    4) = (   0.3535534   0.0000000   0.0000000), wk =   0.1875000
        k(    5) = (  -0.1767767  -0.5303301   0.5303301), wk =   0.7500000
        k(    6) = (   0.0000000  -0.3535534   0.3535534), wk =   0.3750000
        k(    7) = (  -0.7071068   0.0000000   0.0000000), wk =   0.0937500
        k(    8) = (  -0.7071068   0.3535534   0.0000000), wk =   0.1875000

     Dense  grid:    10489 G-vectors     FFT dimensions: (  32,  32,  32)

     Estimated max dynamical RAM per process >      43.06 MB

     Check: negative core charge=   -0.000004

     Initial potential from superposition of free atoms

     starting charge      27.9986, renormalised to      28.0000
     Starting wfcs are   18 randomized atomic wfcs

     total cpu time spent up to now is        0.6 secs

     Self-consistent Calculation

     iteration #  1     ecut=    40.00 Ry     beta= 0.50
     Davidson diagonalization with overlap
     ethr =  1.00E-02,  avg # of iterations =  1.5

     Threshold (ethr) on eigenvalues was too large:
     Diagonalizing with lowered threshold

     Davidson diagonalization with overlap
     ethr =  1.28E-04,  avg # of iterations =  2.0

     total cpu time spent up to now is        1.0 secs

     total energy              =    -426.15155475 Ry
     estimated scf accuracy    <       0.03872172 Ry

     iteration #  2     ecut=    40.00 Ry     beta= 0.50
     Davidson diagonalization with overlap
     ethr =  1.38E-04,  avg # of iterations =  1.1

     total cpu time spent up to now is        1.2 secs

     total energy              =    -426.15003381 Ry
     estimated scf accuracy    <       0.00688603 Ry

     iteration #  3     ecut=    40.00 Ry     beta= 0.50
     Davidson diagonalization with overlap
     ethr =  2.46E-05,  avg # of iterations =  2.0

     total cpu time spent up to now is        1.5 secs

     total energy              =    -426.15051850 Ry
     estimated scf accuracy    <       0.00007335 Ry

     iteration #  4     ecut=    40.00 Ry     beta= 0.50
     Davidson diagonalization with overlap
     ethr =  2.62E-07,  avg # of iterations =  3.0

     total cpu time spent up to now is        1.7 secs

     total energy              =    -426.15053702 Ry
     estimated scf accuracy    <       0.00000305 Ry

     iteration #  5     ecut=    40.00 Ry     beta= 0.50
     Davidson diagonalization with overlap
     ethr =  1.09E-08,  avg # of iterations =  3.4

     total cpu time spent up to now is        2.0 secs

     total energy              =    -426.15053777 Ry
     estimated scf accuracy    <       0.00000011 Ry

     iteration #  6     ecut=    40.00 Ry     beta= 0.50
     Davidson diagonalization with overlap
     ethr =  4.01E-10,  avg # of iterations =  4.5

     total cpu time spent up to now is        2.3 secs

     End of self-consistent calculation

          k = 0.0000 0.0000 0.0000 (  1363 PWs)   bands (ev):

   -16.8001 -16.8001 -16.8001 -16.7648 -16.7648 -16.5593 -16.5593 -16.5593
   -16.5470 -16.5470  -4.6869   7.7737   8.0584   8.0584

          k = 0.1768 0.1768-0.1768 (  1329 PWs)   bands (ev):

   -16.8178 -16.8178 -16.7917 -16.7371 -16.7371 -16.5848 -16.5848 -16.5692
   -16.5267 -16.5267  -3.9526   3.2887   7.1835   7.1835

          k =-0.3536-0.3536 0.3536 (  1308 PWs)   bands (ev):

   -16.8240 -16.8240 -16.7830 -16.7240 -16.7240 -16.5935 -16.5935 -16.5795
   -16.5200 -16.5200  -2.6240   0.4508   6.6665   6.6665

          k = 0.3536 0.0000 0.0000 (  1331 PWs)   bands (ev):

   -16.8180 -16.8180 -16.8061 -16.7316 -16.6975 -16.6443 -16.5776 -16.5344
   -16.5317 -16.5317  -3.6873   3.2633   6.0385   6.0385

          k =-0.1768-0.5303 0.5303 (  1314 PWs)   bands (ev):

   -16.8445 -16.8300 -16.7634 -16.6978 -16.6788 -16.6605 -16.6140 -16.5832
   -16.5122 -16.4982  -2.2164   0.6434   4.3426   5.6773

          k = 0.0000-0.3536 0.3536 (  1320 PWs)   bands (ev):

   -16.8399 -16.8326 -16.7573 -16.7217 -16.6951 -16.6251 -16.6060 -16.5936
   -16.5088 -16.5055  -2.8232   1.4884   4.2070   6.5668

          k =-0.7071 0.0000 0.0000 (  1298 PWs)   bands (ev):

   -16.8333 -16.8333 -16.7495 -16.7495 -16.6533 -16.6533 -16.5973 -16.5973
   -16.5064 -16.5064  -0.8461  -0.8461   5.0110   5.0110

          k =-0.7071 0.3536 0.0000 (  1316 PWs)   bands (ev):

   -16.8467 -16.8467 -16.7084 -16.7084 -16.6608 -16.6608 -16.6296 -16.6296
   -16.4946 -16.4946  -0.7513  -0.7513   4.1747   4.1747

     highest occupied level (ev):     8.0584

!    total energy              =    -426.15053783 Ry
     estimated scf accuracy    <       0.00000002 Ry

     The total energy is the sum of the following terms:
     one-electron contribution =    -280.39041221 Ry
     hartree contribution      =     165.57834178 Ry
     xc contribution           =    -114.53964037 Ry
     ewald contribution        =    -196.79882703 Ry

     convergence has been achieved in   6 iterations

     Forces acting on atoms (cartesian axes, Ry/au):

     atom    1 type  1   force =     0.00000000    0.00000000    0.00000000
     atom    2 type  1   force =     0.00000000    0.00000000    0.00000000

     Total force =     0.000000     Total SCF correction =     0.000000


     Computing stress (Cartesian axis) and pressure

          total   stress  (Ry/bohr**3)                   (kbar)     P=      -10.57
  -0.00007187  -0.00000000  -0.00000000          -10.57       -0.00       -0.00
  -0.00000000  -0.00007187  -0.00000000           -0.00      -10.57       -0.00
  -0.00000000  -0.00000000  -0.00007187           -0.00       -0.00      -10.57

     Message from routine punch:
     Nothing written, as per user request (disk_io='none')

     init_run     :      0.52s CPU      0.56s WALL (       1 calls)
     electrons    :      1.61s CPU      1.63s WALL (       1 calls)
     forces       :      0.05s CPU      0.05s WALL (       1 calls)
     stress       :      0.36s CPU      0.36s WALL (       1 calls)

     Called by init_run:
     wfcinit      :      0.19s CPU      0.20s WALL (       1 calls)
     potinit      :      0.01s CPU      0.01s WALL (       1 calls)
     hinit0       :      0.30s CPU      0.30s WALL (       1 calls)

     Called by electrons:
     c_bands      :      1.06s CPU      1.08s WALL (       7 calls)
     sum_band     :      0.38s CPU      0.38s WALL (       7 calls)
     v_of_rho     :      0.01s CPU      0.01s WALL (       7 calls)
     newd         :      0.17s CPU      0.19s WALL (       7 calls)
     mix_rho      :      0.00s CPU      0.00s WALL (       7 calls)

     Called by c_bands:
     init_us_2    :      0.05s CPU      0.05s WALL (     136 calls)
     cegterg      :      0.95s CPU      0.97s WALL (      56 calls)

     Called by *egterg:
     cdiaghg      :      0.03s CPU      0.03s WALL (     188 calls)
     h_psi        :      0.96s CPU      0.99s WALL (     204 calls)
     s_psi        :      0.02s CPU      0.03s WALL (     204 calls)
     g_psi        :      0.01s CPU      0.01s WALL (     140 calls)

     Called by h_psi:
     h_psi:calbec :      0.03s CPU      0.03s WALL (     204 calls)
     vloc_psi     :      0.90s CPU      0.92s WALL (     204 calls)
     add_vuspsi   :      0.03s CPU      0.03s WALL (     204 calls)

     General routines
     calbec       :      0.06s CPU      0.06s WALL (     396 calls)
     fft          :      0.15s CPU      0.15s WALL (      37 calls)
     ffts         :      0.00s CPU      0.00s WALL (       7 calls)
     fftw         :      0.90s CPU      0.92s WALL (    5088 calls)

     Parallel routines

     PWSCF        :      2.62s CPU      2.68s WALL


   This run was terminated on:  13: 2:14   9Oct2025            

=------------------------------------------------------------------------------=
   JOB DONE.
=------------------------------------------------------------------------------=
