LAMMPS (22 Jul 2025 - Update 1)
# ---------- 1. Initialize simulation ---------------------
units metal
atom_style atomic
dimension  3
boundary   p p f
read_data /home/bond/Work/Lab1/Surface/LJ/relax/12_16_100/lammps.data
Reading data file ...
  orthogonal box = (0 0 0) to (8.7451919 8.7451919 54.673877)
  1 by 1 by 1 MPI processor grid
  reading atoms ...
  108 atoms
  read_data CPU = 0.001 seconds

# ---------- 2. Specify interatomic potential ---------------------
pair_style lj/cut 4.5
pair_coeff 1 1 0.392 2.620 4.5

# ---------- 3. Run single point calculation  ---------------------
thermo_style custom step pe lx ly lz press pxx pyy pzz
run 0
WARNING: No fixes with time integration, atoms won't move
For more information see https://docs.lammps.org/err0028 (../verlet.cpp:60)
Generated 0 of 0 mixed pair_coeff terms from geometric mixing rule
Neighbor list info ...
  update: every = 1 steps, delay = 0 steps, check = yes
  max neighbors/atom: 2000, page size: 100000
  master list distance cutoff = 6.5
  ghost atom cutoff = 6.5
  binsize = 3.25, bins = 3 3 17
  1 neighbor lists, perpetual/occasional/extra = 1 0 0
  (1) pair lj/cut, perpetual
      attributes: half, newton on
      pair build: half/bin/atomonly/newton
      stencil: half/bin/3d
      bin: standard
Per MPI rank memory allocation (min/avg/max) = 3.075 | 3.075 | 3.075 Mbytes
   Step         PotEng           Lx             Ly             Lz           Press           Pxx            Pyy            Pzz      
         0  -268.72967      8.7451919      8.7451919      54.673877     -0.11840212    -928.11985     -928.11985      1855.8845    
Loop time of 1.444e-06 on 1 procs for 0 steps with 108 atoms

207.8% CPU use with 1 MPI tasks x no OpenMP threads

MPI task timing breakdown:
Section |  min time  |  avg time  |  max time  |%varavg| %total
---------------------------------------------------------------
Pair    | 0          | 0          | 0          |   0.0 |  0.00
Neigh   | 0          | 0          | 0          |   0.0 |  0.00
Comm    | 0          | 0          | 0          |   0.0 |  0.00
Output  | 0          | 0          | 0          |   0.0 |  0.00
Modify  | 0          | 0          | 0          |   0.0 |  0.00
Other   |            | 1.444e-06  |            |       |100.00

Nlocal:            108 ave         108 max         108 min
Histogram: 1 0 0 0 0 0 0 0 0 0
Nghost:            570 ave         570 max         570 min
Histogram: 1 0 0 0 0 0 0 0 0 0
Neighs:           2646 ave        2646 max        2646 min
Histogram: 1 0 0 0 0 0 0 0 0 0

Total # of neighbors = 2646
Ave neighs/atom = 24.5
Neighbor list builds = 0
Dangerous builds = 0
# -- include optimization of the unit cell parameter
fix 1 all box/relax x 0.0 y 0.0 couple xy vmax 0.001

# -- enable optimization of atomic positions (and the cell)
min_style cg
minimize 1e-10 1e-10 1000 10000
Generated 0 of 0 mixed pair_coeff terms from geometric mixing rule
WARNING: Energy due to 3 extra global DOFs will be included in minimizer energies
 (../min.cpp:222)
Per MPI rank memory allocation (min/avg/max) = 4.2 | 4.2 | 4.2 Mbytes
   Step         PotEng           Lx             Ly             Lz           Press           Pxx            Pyy            Pzz      
         0  -268.72967      8.7451919      8.7451919      54.673877     -0.11840212    -928.11985     -928.11985      1855.8845    
        37  -268.75863      8.7310211      8.7310211      54.673877      3.1243505      1.7143386      1.7143386      5.9443743    
Loop time of 0.00353503 on 1 procs for 37 steps with 108 atoms

100.0% CPU use with 1 MPI tasks x no OpenMP threads

Minimization stats:
  Stopping criterion = energy tolerance
  Energy initial, next-to-last, final = 
     -268.729670859267  -268.758631500537  -268.758631523054
  Force two-norm initial, final = 3.5139816 0.0073538393
  Force max component initial, final = 2.4222126 0.0044668409
  Final line search alpha, max atom move = 1 0.0044668409
  Iterations, force evaluations = 37 74

MPI task timing breakdown:
Section |  min time  |  avg time  |  max time  |%varavg| %total
---------------------------------------------------------------
Pair    | 0.0023869  | 0.0023869  | 0.0023869  |   0.0 | 67.52
Neigh   | 0          | 0          | 0          |   0.0 |  0.00
Comm    | 0.0001914  | 0.0001914  | 0.0001914  |   0.0 |  5.41
Output  | 0          | 0          | 0          |   0.0 |  0.00
Modify  | 0          | 0          | 0          |   0.0 |  0.00
Other   |            | 0.0009567  |            |       | 27.06

Nlocal:            108 ave         108 max         108 min
Histogram: 1 0 0 0 0 0 0 0 0 0
Nghost:            570 ave         570 max         570 min
Histogram: 1 0 0 0 0 0 0 0 0 0
Neighs:           2646 ave        2646 max        2646 min
Histogram: 1 0 0 0 0 0 0 0 0 0

Total # of neighbors = 2646
Ave neighs/atom = 24.5
Neighbor list builds = 0
Dangerous builds = 0

# ---- 4. Define and print useful variables -------------
variable natoms equal "count(all)"
variable totenergy equal "pe"
variable length equal "lx"

print "Total energy (eV) = ${totenergy}"
Total energy (eV) = -268.758631523054
print "Number of atoms = ${natoms}"
Number of atoms = 108
print "Lattice constant (Angstoms) = ${length}"
Lattice constant (Angstoms) = 8.73102107189648
Total wall time: 0:00:00
