
     Program PWSCF v.7.4.1 starts on  9Oct2025 at 13: 3: 2 

     This program is part of the open-source Quantum ESPRESSO suite
     for quantum simulation of materials; please cite
         "P. Giannozzi et al., J. Phys.:Condens. Matter 21 395502 (2009);
         "P. Giannozzi et al., J. Phys.:Condens. Matter 29 465901 (2017);
         "P. Giannozzi et al., J. Chem. Phys. 152 154105 (2020);
          URL http://www.quantum-espresso.org", 
     in publications or presentations arising from this work. More details at
     http://www.quantum-espresso.org/quote

     Parallel version (MPI), running on     1 processors

     MPI processes distributed on     1 nodes
     445 MiB available memory on the printing compute node when the environment starts

     Waiting for input...
     Reading input from standard input
Warning: card &CELL ignored
Warning: card / ignored

     Current dimensions of program PWSCF are:
     Max number of different atomic species (ntypx) = 10
     Max number of k-points (npk) =  40000
     Max angular momentum in pseudopotentials (lmaxx) =  4
     Message from routine setup:
     using ibrav=0 with symmetry is DISCOURAGED, use correct ibrav instead

     Subspace diagonalization in iterative solution of the eigenvalue problem:
     a serial algorithm will be used


     G-vector sticks info
     --------------------
     sticks:   dense  smooth     PW     G-vecs:    dense   smooth      PW
     Sum        1111    1111    313                24357    24357    3839

     Using Slab Decomposition



     bravais-lattice index     =            0
     lattice parameter (alat)  =       7.5872  a.u.
     unit-cell volume          =     308.8323 (a.u.)^3
     number of atoms/cell      =            2
     number of atomic types    =            1
     number of electrons       =        28.00
     number of Kohn-Sham states=           14
     kinetic-energy cutoff     =      70.0000  Ry
     charge density cutoff     =     280.0000  Ry
     scf convergence threshold =      1.0E-07
     mixing beta               =       0.5000
     number of iterations used =            8  plain     mixing
     Exchange-correlation=  SLA  PZ   NOGX NOGC
                           (   1   1   0   0   0   0   0)

     celldm(1)=   7.587160  celldm(2)=   0.000000  celldm(3)=   0.000000
     celldm(4)=   0.000000  celldm(5)=   0.000000  celldm(6)=   0.000000

     crystal axes: (cart. coord. in units of alat)
               a(1) = (   0.000000   0.707107   0.707107 )  
               a(2) = (   0.707107   0.000000   0.707107 )  
               a(3) = (   0.707107   0.707107   0.000000 )  

     reciprocal axes: (cart. coord. in units 2 pi/alat)
               b(1) = ( -0.707107  0.707107  0.707107 )  
               b(2) = (  0.707107 -0.707107  0.707107 )  
               b(3) = (  0.707107  0.707107 -0.707107 )  


     PseudoPot. # 1 for Ge read from file:
     /home/bond/Software/QE/qe-7.4.1/pseudo/ge_lda_v1.4.uspp.F.UPF
     MD5 check sum: bf9d52b59cc8a669818bb2b52e0c2ba0
     Pseudo is Ultrasoft + core correction, Zval = 14.0
     Generated by new atomic code, or converted to UPF format
     Using radial grid of  873 points,  6 beta functions with: 
                l(1) =   0
                l(2) =   0
                l(3) =   1
                l(4) =   1
                l(5) =   2
                l(6) =   2
     Q(r) pseudized with  8 coefficients,  rinner =    1.400   1.400   1.400
                                                       1.400   1.400

     atomic species   valence    mass     pseudopotential
     Ge               14.00    72.63000     Ge( 1.00)

     48 Sym. Ops., with inversion, found (24 have fractional translation)



   Cartesian axes

     site n.     atom                  positions (alat units)
         1        Ge     tau(   1) = (   0.0000000   0.0000000   0.0000000  )
         2        Ge     tau(   2) = (   0.3535534   0.3535534   0.3535534  )

     number of k points=     8
                       cart. coord. in units 2pi/alat
        k(    1) = (   0.0000000   0.0000000   0.0000000), wk =   0.0312500
        k(    2) = (   0.1767767   0.1767767  -0.1767767), wk =   0.2500000
        k(    3) = (  -0.3535534  -0.3535534   0.3535534), wk =   0.1250000
        k(    4) = (   0.3535534   0.0000000   0.0000000), wk =   0.1875000
        k(    5) = (  -0.1767767  -0.5303301   0.5303301), wk =   0.7500000
        k(    6) = (   0.0000000  -0.3535534   0.3535534), wk =   0.3750000
        k(    7) = (  -0.7071068   0.0000000   0.0000000), wk =   0.0937500
        k(    8) = (  -0.7071068   0.3535534   0.0000000), wk =   0.1875000

     Dense  grid:    24357 G-vectors     FFT dimensions: (  48,  48,  48)

     Estimated max dynamical RAM per process >     101.32 MB

     Initial potential from superposition of free atoms

     starting charge      27.9986, renormalised to      28.0000
     Starting wfcs are   18 randomized atomic wfcs

     total cpu time spent up to now is        1.1 secs

     Self-consistent Calculation

     iteration #  1     ecut=    70.00 Ry     beta= 0.50
     Davidson diagonalization with overlap
     ethr =  1.00E-02,  avg # of iterations =  1.6

     Threshold (ethr) on eigenvalues was too large:
     Diagonalizing with lowered threshold

     Davidson diagonalization with overlap
     ethr =  1.28E-04,  avg # of iterations =  2.0

     total cpu time spent up to now is        2.3 secs

     total energy              =    -426.15264464 Ry
     estimated scf accuracy    <       0.03871142 Ry

     iteration #  2     ecut=    70.00 Ry     beta= 0.50
     Davidson diagonalization with overlap
     ethr =  1.38E-04,  avg # of iterations =  1.1

     total cpu time spent up to now is        2.9 secs

     total energy              =    -426.15112982 Ry
     estimated scf accuracy    <       0.00688607 Ry

     iteration #  3     ecut=    70.00 Ry     beta= 0.50
     Davidson diagonalization with overlap
     ethr =  2.46E-05,  avg # of iterations =  2.0

     total cpu time spent up to now is        3.5 secs

     total energy              =    -426.15161885 Ry
     estimated scf accuracy    <       0.00007392 Ry

     iteration #  4     ecut=    70.00 Ry     beta= 0.50
     Davidson diagonalization with overlap
     ethr =  2.64E-07,  avg # of iterations =  3.5

     total cpu time spent up to now is        4.3 secs

     total energy              =    -426.15163820 Ry
     estimated scf accuracy    <       0.00000322 Ry

     iteration #  5     ecut=    70.00 Ry     beta= 0.50
     Davidson diagonalization with overlap
     ethr =  1.15E-08,  avg # of iterations =  2.5

     total cpu time spent up to now is        5.1 secs

     total energy              =    -426.15163899 Ry
     estimated scf accuracy    <       0.00000013 Ry

     iteration #  6     ecut=    70.00 Ry     beta= 0.50
     Davidson diagonalization with overlap
     ethr =  4.80E-10,  avg # of iterations =  3.9

     total cpu time spent up to now is        5.9 secs

     End of self-consistent calculation

          k = 0.0000 0.0000 0.0000 (  3119 PWs)   bands (ev):

   -16.8021 -16.8021 -16.8021 -16.7669 -16.7669 -16.5614 -16.5614 -16.5614
   -16.5490 -16.5490  -4.6867   7.7741   8.0585   8.0585

          k = 0.1768 0.1768-0.1768 (  3040 PWs)   bands (ev):

   -16.8199 -16.8199 -16.7937 -16.7391 -16.7391 -16.5868 -16.5868 -16.5713
   -16.5288 -16.5288  -3.9525   3.2889   7.1835   7.1835

          k =-0.3536-0.3536 0.3536 (  3040 PWs)   bands (ev):

   -16.8260 -16.8260 -16.7850 -16.7261 -16.7261 -16.5955 -16.5955 -16.5815
   -16.5220 -16.5220  -2.6238   0.4509   6.6665   6.6665

          k = 0.3536 0.0000 0.0000 (  3042 PWs)   bands (ev):

   -16.8200 -16.8200 -16.8081 -16.7337 -16.6996 -16.6463 -16.5796 -16.5365
   -16.5337 -16.5337  -3.6871   3.2635   6.0386   6.0386

          k =-0.1768-0.5303 0.5303 (  3049 PWs)   bands (ev):

   -16.8466 -16.8320 -16.7654 -16.6999 -16.6808 -16.6626 -16.6160 -16.5853
   -16.5143 -16.5003  -2.2162   0.6436   4.3427   5.6774

          k = 0.0000-0.3536 0.3536 (  3054 PWs)   bands (ev):

   -16.8419 -16.8346 -16.7594 -16.7237 -16.6971 -16.6271 -16.6080 -16.5956
   -16.5108 -16.5075  -2.8230   1.4886   4.2071   6.5669

          k =-0.7071 0.0000 0.0000 (  3026 PWs)   bands (ev):

   -16.8353 -16.8353 -16.7516 -16.7516 -16.6554 -16.6554 -16.5994 -16.5994
   -16.5084 -16.5084  -0.8459  -0.8459   5.0111   5.0111

          k =-0.7071 0.3536 0.0000 (  3052 PWs)   bands (ev):

   -16.8487 -16.8487 -16.7104 -16.7104 -16.6628 -16.6628 -16.6316 -16.6316
   -16.4966 -16.4966  -0.7511  -0.7511   4.1748   4.1748

     highest occupied level (ev):     8.0585

!    total energy              =    -426.15163905 Ry
     estimated scf accuracy    <       0.00000003 Ry

     The total energy is the sum of the following terms:
     one-electron contribution =    -280.39040441 Ry
     hartree contribution      =     165.57638476 Ry
     xc contribution           =    -114.53879239 Ry
     ewald contribution        =    -196.79882701 Ry

     convergence has been achieved in   6 iterations

     Forces acting on atoms (cartesian axes, Ry/au):

     atom    1 type  1   force =     0.00000000    0.00000000   -0.00000000
     atom    2 type  1   force =    -0.00000000   -0.00000000    0.00000000

     Total force =     0.000000     Total SCF correction =     0.000000


     Computing stress (Cartesian axis) and pressure

          total   stress  (Ry/bohr**3)                   (kbar)     P=      -10.91
  -0.00007418   0.00000000   0.00000000          -10.91        0.00        0.00
   0.00000000  -0.00007418   0.00000000            0.00      -10.91        0.00
   0.00000000   0.00000000  -0.00007418            0.00        0.00      -10.91

     Message from routine punch:
     Nothing written, as per user request (disk_io='none')

     init_run     :      1.05s CPU      1.05s WALL (       1 calls)
     electrons    :      4.58s CPU      4.73s WALL (       1 calls)
     forces       :      0.11s CPU      0.12s WALL (       1 calls)
     stress       :      0.83s CPU      0.86s WALL (       1 calls)

     Called by init_run:
     wfcinit      :      0.46s CPU      0.46s WALL (       1 calls)
     potinit      :      0.02s CPU      0.02s WALL (       1 calls)
     hinit0       :      0.49s CPU      0.49s WALL (       1 calls)

     Called by electrons:
     c_bands      :      3.20s CPU      3.22s WALL (       7 calls)
     sum_band     :      1.01s CPU      1.07s WALL (       7 calls)
     v_of_rho     :      0.03s CPU      0.04s WALL (       7 calls)
     newd         :      0.39s CPU      0.45s WALL (       7 calls)
     mix_rho      :      0.01s CPU      0.01s WALL (       7 calls)

     Called by c_bands:
     init_us_2    :      0.10s CPU      0.10s WALL (     136 calls)
     cegterg      :      2.97s CPU      2.98s WALL (      56 calls)

     Called by *egterg:
     cdiaghg      :      0.03s CPU      0.03s WALL (     181 calls)
     h_psi        :      3.09s CPU      3.10s WALL (     197 calls)
     s_psi        :      0.05s CPU      0.05s WALL (     197 calls)
     g_psi        :      0.01s CPU      0.01s WALL (     133 calls)

     Called by h_psi:
     h_psi:calbec :      0.07s CPU      0.07s WALL (     197 calls)
     vloc_psi     :      2.94s CPU      2.96s WALL (     197 calls)
     add_vuspsi   :      0.06s CPU      0.06s WALL (     197 calls)

     General routines
     calbec       :      0.14s CPU      0.14s WALL (     389 calls)
     fft          :      0.31s CPU      0.31s WALL (      37 calls)
     ffts         :      0.01s CPU      0.01s WALL (       7 calls)
     fftw         :      3.01s CPU      3.03s WALL (    5052 calls)

     Parallel routines

     PWSCF        :      6.64s CPU      6.85s WALL


   This run was terminated on:  13: 3: 9   9Oct2025            

=------------------------------------------------------------------------------=
   JOB DONE.
=------------------------------------------------------------------------------=
