
     Program PWSCF v.7.4.1 starts on 20Oct2025 at 17:59:58 

     This program is part of the open-source Quantum ESPRESSO suite
     for quantum simulation of materials; please cite
         "P. Giannozzi et al., J. Phys.:Condens. Matter 21 395502 (2009);
         "P. Giannozzi et al., J. Phys.:Condens. Matter 29 465901 (2017);
         "P. Giannozzi et al., J. Chem. Phys. 152 154105 (2020);
          URL http://www.quantum-espresso.org", 
     in publications or presentations arising from this work. More details at
     http://www.quantum-espresso.org/quote

     Parallel version (MPI), running on     2 processors

     MPI processes distributed on     1 nodes
     346 MiB available memory on the printing compute node when the environment starts

     Waiting for input...
     Reading input from standard input

     Current dimensions of program PWSCF are:
     Max number of different atomic species (ntypx) = 10
     Max number of k-points (npk) =  40000
     Max angular momentum in pseudopotentials (lmaxx) =  4
     file Fe.pbe-nd-rrkjus.UPF: wavefunction(s)  4S renormalized
     Message from routine find_sym:
     Not a group! Trying with lower acceptance parameter...
     Message from routine find_sym:
     Symmetry operations form a group
     Message from routine setup:
     using ibrav=0 with symmetry is DISCOURAGED, use correct ibrav instead

     R & G space division:  proc/nbgrp/npool/nimage =       2
     Subspace diagonalization in iterative solution of the eigenvalue problem:
     a serial algorithm will be used


     Parallelization info
     --------------------
     sticks:   dense  smooth     PW     G-vecs:    dense   smooth      PW
     Min         273     105     36                 7823     1983     379
     Max         274     106     37                 7826     1986     380
     Sum         547     211     73                15649     3969     759

     Using Slab Decomposition



     bravais-lattice index     =            0
     lattice parameter (alat)  =       5.1023  a.u.
     unit-cell volume          =     178.9386 (a.u.)^3
     number of atoms/cell      =            2
     number of atomic types    =            1
     number of electrons       =        16.00
     number of Kohn-Sham states=           12
     kinetic-energy cutoff     =      30.0000  Ry
     charge density cutoff     =     300.0000  Ry
     scf convergence threshold =      1.0E-07
     mixing beta               =       0.5000
     number of iterations used =            8  plain     mixing
     energy convergence thresh.=      1.0E-04
     force convergence thresh. =      1.0E-03
     press convergence thresh. =      5.0E-01
     Exchange-correlation=  SLA  PW   PBE  PBE
                           (   1   4   3   4   0   0   0)
     nstep                     =           50


     celldm(1)=   5.102261  celldm(2)=   0.000000  celldm(3)=   0.000000
     celldm(4)=   0.000000  celldm(5)=   0.000000  celldm(6)=   0.000000

     crystal axes: (cart. coord. in units of alat)
               a(1) = (   1.000000   0.000000   0.000000 )  
               a(2) = (  -0.500000   0.866025   0.000000 )  
               a(3) = (   0.000000   0.000000   1.555556 )  

     reciprocal axes: (cart. coord. in units 2 pi/alat)
               b(1) = (  1.000000  0.577350 -0.000000 )  
               b(2) = (  0.000000  1.154701  0.000000 )  
               b(3) = (  0.000000 -0.000000  0.642857 )  


     PseudoPot. # 1 for Fe read from file:
     /home/bond/Software/QE/qe-7.4.1/pseudo/Fe.pbe-nd-rrkjus.UPF
     MD5 check sum: 398036227a04b607635f6f5e8dfd8242
     Pseudo is Ultrasoft + core correction, Zval =  8.0
     Generated by new atomic code, or converted to UPF format
     Using radial grid of  957 points,  6 beta functions with: 
                l(1) =   0
                l(2) =   0
                l(3) =   1
                l(4) =   1
                l(5) =   2
                l(6) =   2
     Q(r) pseudized with 0 coefficients 


     atomic species   valence    mass     pseudopotential
     Fe                8.00    55.84500     Fe( 1.00)

     Starting magnetic structure 
     atomic species   magnetization
     Fe              0.700

      4 Sym. Ops. (no inversion) found



   Cartesian axes

     site n.     atom                  positions (alat units)
         1        Fe     tau(   1) = (   0.0000000   0.0000000   0.0000000  )
         2        Fe     tau(   2) = (   0.0000000   0.5773519   0.7777778  )

     number of k points=   108  Methfessel-Paxton smearing, width (Ry)=  0.0200

     Number of k-points >= 100: set verbosity='high' to print them.

     Dense  grid:    15649 G-vectors     FFT dimensions: (  30,  30,  45)

     Smooth grid:     3969 G-vectors     FFT dimensions: (  18,  18,  27)

     Estimated max dynamical RAM per process >      44.76 MB

     Estimated total dynamical RAM >      89.52 MB

     Check: negative core charge=   -0.000008
     Generating pointlists ...
     new r_m :   0.3996 (alat units)  2.0387 (a.u.) for type    1

     Initial potential from superposition of free atoms

     starting charge      15.9987, renormalised to      16.0000
     Starting wfcs are   12 randomized atomic wfcs

     total cpu time spent up to now is        1.1 secs

     Self-consistent Calculation

     iteration #  1     ecut=    30.00 Ry     beta= 0.50
     Davidson diagonalization with overlap
     ethr =  1.00E-02,  avg # of iterations =  4.0

     total cpu time spent up to now is        2.9 secs

     total energy              =    -111.34298205 Ry
     estimated scf accuracy    <       0.57288400 Ry

     total magnetization       =     6.84 Bohr mag/cell
     absolute magnetization    =     6.84 Bohr mag/cell

     iteration #  2     ecut=    30.00 Ry     beta= 0.50
     Davidson diagonalization with overlap
     ethr =  3.58E-03,  avg # of iterations =  2.0

     total cpu time spent up to now is        4.4 secs

     total energy              =    -111.52904399 Ry
     estimated scf accuracy    <       0.06472950 Ry

     total magnetization       =     6.07 Bohr mag/cell
     absolute magnetization    =     6.09 Bohr mag/cell

     iteration #  3     ecut=    30.00 Ry     beta= 0.50
     Davidson diagonalization with overlap
     ethr =  4.05E-04,  avg # of iterations =  1.6

     total cpu time spent up to now is        5.6 secs

     total energy              =    -111.56165480 Ry
     estimated scf accuracy    <       0.01175435 Ry

     total magnetization       =     5.97 Bohr mag/cell
     absolute magnetization    =     6.03 Bohr mag/cell

     iteration #  4     ecut=    30.00 Ry     beta= 0.50
     Davidson diagonalization with overlap
     ethr =  7.35E-05,  avg # of iterations =  2.6

     total cpu time spent up to now is        7.2 secs

     total energy              =    -111.56032105 Ry
     estimated scf accuracy    <       0.18343698 Ry

     total magnetization       =     5.67 Bohr mag/cell
     absolute magnetization    =     5.87 Bohr mag/cell

     iteration #  5     ecut=    30.00 Ry     beta= 0.50
     Davidson diagonalization with overlap
     ethr =  7.35E-05,  avg # of iterations =  1.3

     total cpu time spent up to now is        8.7 secs

     total energy              =    -111.56825113 Ry
     estimated scf accuracy    <       0.00152327 Ry

     total magnetization       =     5.64 Bohr mag/cell
     absolute magnetization    =     5.86 Bohr mag/cell

     iteration #  6     ecut=    30.00 Ry     beta= 0.50
     Davidson diagonalization with overlap
     ethr =  9.52E-06,  avg # of iterations =  2.2

     total cpu time spent up to now is       10.2 secs

     total energy              =    -111.56890245 Ry
     estimated scf accuracy    <       0.00011886 Ry

     total magnetization       =     5.59 Bohr mag/cell
     absolute magnetization    =     5.84 Bohr mag/cell

     iteration #  7     ecut=    30.00 Ry     beta= 0.50
     Davidson diagonalization with overlap
     ethr =  7.43E-07,  avg # of iterations =  4.0

     total cpu time spent up to now is       12.0 secs

     total energy              =    -111.56898437 Ry
     estimated scf accuracy    <       0.00003709 Ry

     total magnetization       =     5.58 Bohr mag/cell
     absolute magnetization    =     5.84 Bohr mag/cell

     iteration #  8     ecut=    30.00 Ry     beta= 0.50
     Davidson diagonalization with overlap
     ethr =  2.32E-07,  avg # of iterations =  3.7

     total cpu time spent up to now is       14.0 secs

     total energy              =    -111.56899577 Ry
     estimated scf accuracy    <       0.00006038 Ry

     total magnetization       =     5.57 Bohr mag/cell
     absolute magnetization    =     5.84 Bohr mag/cell

     iteration #  9     ecut=    30.00 Ry     beta= 0.50
     Davidson diagonalization with overlap
     ethr =  2.32E-07,  avg # of iterations =  2.2

     total cpu time spent up to now is       15.5 secs

     total energy              =    -111.56900683 Ry
     estimated scf accuracy    <       0.00000272 Ry

     total magnetization       =     5.58 Bohr mag/cell
     absolute magnetization    =     5.85 Bohr mag/cell

     iteration # 10     ecut=    30.00 Ry     beta= 0.50
     Davidson diagonalization with overlap
     ethr =  1.70E-08,  avg # of iterations =  5.5

     total cpu time spent up to now is       18.2 secs

     total energy              =    -111.56900901 Ry
     estimated scf accuracy    <       0.00000235 Ry

     total magnetization       =     5.58 Bohr mag/cell
     absolute magnetization    =     5.85 Bohr mag/cell

     iteration # 11     ecut=    30.00 Ry     beta= 0.50
     Davidson diagonalization with overlap
     ethr =  1.47E-08,  avg # of iterations =  1.4

     total cpu time spent up to now is       19.8 secs

     total energy              =    -111.56900906 Ry
     estimated scf accuracy    <       0.00000048 Ry

     total magnetization       =     5.58 Bohr mag/cell
     absolute magnetization    =     5.85 Bohr mag/cell

     iteration # 12     ecut=    30.00 Ry     beta= 0.50
     Davidson diagonalization with overlap
     ethr =  3.00E-09,  avg # of iterations =  3.7

     Magnetic moment per site  (integrated on atomic sphere of radius R)
     atom   1 (R=0.400)  charge=  6.6257  magn=  2.8436
     atom   2 (R=0.400)  charge=  6.6252  magn=  2.8436

     total cpu time spent up to now is       21.8 secs

     End of self-consistent calculation

     Number of k-points >= 100: set verbosity='high' to print the bands.

     the Fermi energy is    11.5985 ev

!    total energy              =    -111.56900926 Ry
     estimated scf accuracy    <       0.00000002 Ry
     smearing contrib. (-TS)   =      -0.00010070 Ry
     internal energy E=F+TS    =    -111.56890856 Ry

     The total energy is F=E-TS. E is the sum of the following terms:
     one-electron contribution =       9.11209466 Ry
     hartree contribution      =      14.78889200 Ry
     xc contribution           =     -52.84153118 Ry
     ewald contribution        =     -82.62836405 Ry

     total magnetization       =     5.58 Bohr mag/cell
     absolute magnetization    =     5.85 Bohr mag/cell

     convergence has been achieved in  12 iterations

     Forces acting on atoms (cartesian axes, Ry/au):

     atom    1 type  1   force =     0.00000000   -0.00000160    0.00000000
     atom    2 type  1   force =     0.00000000    0.00000160    0.00000000

     Total force =     0.000002     Total SCF correction =     0.000003
     SCF correction compared to forces is large: reduce conv_thr to get better values


     Computing stress (Cartesian axis) and pressure

          total   stress  (Ry/bohr**3)                   (kbar)     P=      -95.99
  -0.00087444   0.00000000   0.00000000         -128.63        0.00        0.00
   0.00000000  -0.00087445   0.00000000            0.00     -128.64        0.00
   0.00000000   0.00000000  -0.00020877            0.00        0.00      -30.71


     BFGS Geometry Optimization
     Energy error            =      7.3E-03 Ry
     Gradient error          =      1.6E-06 Ry/Bohr
     Cell gradient error     =      1.3E+02 kbar

     number of scf cycles    =   1
     number of bfgs steps    =   0

     enthalpy           new  =    -111.5690092623 Ry

     new trust radius        =       0.0584868147 bohr
     new conv_thr            =       0.0000001000 Ry

     new unit-cell volume =    170.30696 a.u.^3 (    25.23689 Ang^3 )
     density =      7.34899 g/cm^3

CELL_PARAMETERS (angstrom)
   2.640975165   0.000000000   0.000000000
  -1.320487582   2.287151003   0.000000000
   0.000000000   0.000000000   4.178079020

ATOMIC_POSITIONS (angstrom)
Fe               0.0000000000       -0.0000008303        0.0000000000
Fe               0.0000000000        1.5247723456        2.0890395100


     Message from routine punch:
     Nothing written, as per user request (disk_io='none')
     NEW-OLD atomic charge density approx. for the potential
     New effective cutoffs (rho, wfc):  313.41   31.35

     Check: negative core charge=   -0.000005
     Generating pointlists ...
     new r_m :   0.3951 (alat units)  2.0161 (a.u.) for type    1

     total cpu time spent up to now is       22.5 secs

     Self-consistent Calculation

     iteration #  1     ecut=    30.00 Ry     beta= 0.50
     Davidson diagonalization with overlap
     ethr =  1.00E-06,  avg # of iterations =  6.3

     total cpu time spent up to now is       25.8 secs

     total energy              =    -111.57433445 Ry
     estimated scf accuracy    <       0.00042538 Ry

     total magnetization       =     5.48 Bohr mag/cell
     absolute magnetization    =     5.75 Bohr mag/cell

     iteration #  2     ecut=    30.00 Ry     beta= 0.50
     Davidson diagonalization with overlap
     ethr =  2.66E-06,  avg # of iterations =  1.1

     total cpu time spent up to now is       26.9 secs

     total energy              =    -111.57433924 Ry
     estimated scf accuracy    <       0.00039316 Ry

     total magnetization       =     5.46 Bohr mag/cell
     absolute magnetization    =     5.73 Bohr mag/cell

     iteration #  3     ecut=    30.00 Ry     beta= 0.50
     Davidson diagonalization with overlap
     ethr =  2.46E-06,  avg # of iterations =  1.5

     total cpu time spent up to now is       28.2 secs

     total energy              =    -111.57433217 Ry
     estimated scf accuracy    <       0.00327357 Ry

     total magnetization       =     5.45 Bohr mag/cell
     absolute magnetization    =     5.72 Bohr mag/cell

     iteration #  4     ecut=    30.00 Ry     beta= 0.50
     Davidson diagonalization with overlap
     ethr =  2.46E-06,  avg # of iterations =  1.2

     total cpu time spent up to now is       29.9 secs

     total energy              =    -111.57454064 Ry
     estimated scf accuracy    <       0.00004574 Ry

     total magnetization       =     5.43 Bohr mag/cell
     absolute magnetization    =     5.70 Bohr mag/cell

     iteration #  5     ecut=    30.00 Ry     beta= 0.50
     Davidson diagonalization with overlap
     ethr =  2.86E-07,  avg # of iterations =  2.1

     total cpu time spent up to now is       31.4 secs

     total energy              =    -111.57456403 Ry
     estimated scf accuracy    <       0.00000443 Ry

     total magnetization       =     5.41 Bohr mag/cell
     absolute magnetization    =     5.67 Bohr mag/cell

     iteration #  6     ecut=    30.00 Ry     beta= 0.50
     Davidson diagonalization with overlap
     ethr =  2.77E-08,  avg # of iterations =  3.2

     total cpu time spent up to now is       33.0 secs

     total energy              =    -111.57456789 Ry
     estimated scf accuracy    <       0.00000211 Ry

     total magnetization       =     5.40 Bohr mag/cell
     absolute magnetization    =     5.67 Bohr mag/cell

     iteration #  7     ecut=    30.00 Ry     beta= 0.50
     Davidson diagonalization with overlap
     ethr =  1.32E-08,  avg # of iterations =  1.7

     total cpu time spent up to now is       34.6 secs

     total energy              =    -111.57456841 Ry
     estimated scf accuracy    <       0.00000012 Ry

     total magnetization       =     5.40 Bohr mag/cell
     absolute magnetization    =     5.66 Bohr mag/cell

     iteration #  8     ecut=    30.00 Ry     beta= 0.50
     Davidson diagonalization with overlap
     ethr =  7.28E-10,  avg # of iterations =  5.6

     Magnetic moment per site  (integrated on atomic sphere of radius R)
     atom   1 (R=0.395)  charge=  6.6252  magn=  2.7540
     atom   2 (R=0.395)  charge=  6.6245  magn=  2.7540

     total cpu time spent up to now is       36.9 secs

     End of self-consistent calculation

     Number of k-points >= 100: set verbosity='high' to print the bands.

     the Fermi energy is    12.2939 ev

!    total energy              =    -111.57456860 Ry
     estimated scf accuracy    <       0.00000002 Ry
     smearing contrib. (-TS)   =      -0.00035027 Ry
     internal energy E=F+TS    =    -111.57421833 Ry

     The total energy is F=E-TS. E is the sum of the following terms:
     one-electron contribution =      11.08505870 Ry
     hartree contribution      =      14.23995082 Ry
     xc contribution           =     -52.88239138 Ry
     ewald contribution        =     -84.01683647 Ry

     total magnetization       =     5.40 Bohr mag/cell
     absolute magnetization    =     5.66 Bohr mag/cell

     convergence has been achieved in   8 iterations

     Forces acting on atoms (cartesian axes, Ry/au):

     atom    1 type  1   force =     0.00000000   -0.00000059    0.00000000
     atom    2 type  1   force =     0.00000000    0.00000059    0.00000000

     Total force =     0.000001     Total SCF correction =     0.000000
     SCF correction compared to forces is large: reduce conv_thr to get better values


     Computing stress (Cartesian axis) and pressure

          total   stress  (Ry/bohr**3)                   (kbar)     P=      -43.98
  -0.00056121   0.00000000   0.00000000          -82.56        0.00        0.00
   0.00000000  -0.00056124   0.00000000            0.00      -82.56        0.00
   0.00000000   0.00000000   0.00022554            0.00        0.00       33.18

     Energy error            =      5.6E-03 Ry
     Gradient error          =      5.9E-07 Ry/Bohr
     Cell gradient error     =      8.3E+01 kbar

     number of scf cycles    =   2
     number of bfgs steps    =   1

     enthalpy           old  =    -111.5690092623 Ry
     enthalpy           new  =    -111.5745686005 Ry

     CASE: enthalpy          _new < enthalpy          _old

     new trust radius        =       0.0875009893 bohr
     new conv_thr            =       0.0000000010 Ry

     new unit-cell volume =    160.42160 a.u.^3 (    23.77203 Ang^3 )
     density =      7.80184 g/cm^3

CELL_PARAMETERS (angstrom)
   2.552440497   0.000000000   0.000000000
  -1.276220248   2.210474623   0.000000000
   0.000000000   0.000000000   4.213326155

ATOMIC_POSITIONS (angstrom)
Fe               0.0000000000       -0.0000016095        0.0000000000
Fe               0.0000000000        1.4736553978        2.1066630777


     Message from routine punch:
     Nothing written, as per user request (disk_io='none')
     NEW-OLD atomic charge density approx. for the potential
     New effective cutoffs (rho, wfc):  335.47   33.55

     Check: negative core charge=   -0.000002
     Generating pointlists ...
     new r_m :   0.3900 (alat units)  1.9897 (a.u.) for type    1

     total cpu time spent up to now is       37.7 secs

     Self-consistent Calculation

     iteration #  1     ecut=    30.00 Ry     beta= 0.50
     Davidson diagonalization with overlap
     ethr =  1.00E-06,  avg # of iterations =  7.4

     total cpu time spent up to now is       41.0 secs

     total energy              =    -111.57887904 Ry
     estimated scf accuracy    <       0.00134584 Ry

     total magnetization       =     5.22 Bohr mag/cell
     absolute magnetization    =     5.49 Bohr mag/cell

     iteration #  2     ecut=    30.00 Ry     beta= 0.50
     Davidson diagonalization with overlap
     ethr =  8.41E-06,  avg # of iterations =  1.0

     total cpu time spent up to now is       42.1 secs

     total energy              =    -111.57920280 Ry
     estimated scf accuracy    <       0.00055144 Ry

     total magnetization       =     5.20 Bohr mag/cell
     absolute magnetization    =     5.46 Bohr mag/cell

     iteration #  3     ecut=    30.00 Ry     beta= 0.50
     Davidson diagonalization with overlap
     ethr =  3.45E-06,  avg # of iterations =  2.0

     total cpu time spent up to now is       43.5 secs

     total energy              =    -111.57877793 Ry
     estimated scf accuracy    <       0.00977286 Ry

     total magnetization       =     5.19 Bohr mag/cell
     absolute magnetization    =     5.44 Bohr mag/cell

     iteration #  4     ecut=    30.00 Ry     beta= 0.50
     Davidson diagonalization with overlap
     ethr =  3.45E-06,  avg # of iterations =  1.7

     total cpu time spent up to now is       45.0 secs

     total energy              =    -111.57938784 Ry
     estimated scf accuracy    <       0.00010811 Ry

     total magnetization       =     5.19 Bohr mag/cell
     absolute magnetization    =     5.43 Bohr mag/cell

     iteration #  5     ecut=    30.00 Ry     beta= 0.50
     Davidson diagonalization with overlap
     ethr =  6.76E-07,  avg # of iterations =  1.8

     total cpu time spent up to now is       46.2 secs

     total energy              =    -111.57941288 Ry
     estimated scf accuracy    <       0.00000676 Ry

     total magnetization       =     5.19 Bohr mag/cell
     absolute magnetization    =     5.43 Bohr mag/cell

     iteration #  6     ecut=    30.00 Ry     beta= 0.50
     Davidson diagonalization with overlap
     ethr =  4.23E-08,  avg # of iterations =  3.6

     total cpu time spent up to now is       47.8 secs

     total energy              =    -111.57941859 Ry
     estimated scf accuracy    <       0.00000143 Ry

     total magnetization       =     5.19 Bohr mag/cell
     absolute magnetization    =     5.42 Bohr mag/cell

     iteration #  7     ecut=    30.00 Ry     beta= 0.50
     Davidson diagonalization with overlap
     ethr =  8.95E-09,  avg # of iterations =  3.7

     total cpu time spent up to now is       49.6 secs

     total energy              =    -111.57941975 Ry
     estimated scf accuracy    <       0.00000007 Ry

     total magnetization       =     5.19 Bohr mag/cell
     absolute magnetization    =     5.42 Bohr mag/cell

     iteration #  8     ecut=    30.00 Ry     beta= 0.50
     Davidson diagonalization with overlap
     ethr =  4.08E-10,  avg # of iterations =  6.5

     total cpu time spent up to now is       52.0 secs

     total energy              =    -111.57941991 Ry
     estimated scf accuracy    <          6.3E-09 Ry

     total magnetization       =     5.19 Bohr mag/cell
     absolute magnetization    =     5.42 Bohr mag/cell

     iteration #  9     ecut=    30.00 Ry     beta= 0.50
     Davidson diagonalization with overlap
     ethr =  3.91E-11,  avg # of iterations =  5.1

     total cpu time spent up to now is       54.2 secs

     total energy              =    -111.57941993 Ry
     estimated scf accuracy    <          2.5E-09 Ry

     total magnetization       =     5.19 Bohr mag/cell
     absolute magnetization    =     5.42 Bohr mag/cell

     iteration # 10     ecut=    30.00 Ry     beta= 0.50
     Davidson diagonalization with overlap
     ethr =  1.56E-11,  avg # of iterations =  2.0

     Magnetic moment per site  (integrated on atomic sphere of radius R)
     atom   1 (R=0.390)  charge=  6.6279  magn=  2.6418
     atom   2 (R=0.390)  charge=  6.6268  magn=  2.6418

     total cpu time spent up to now is       56.5 secs

     End of self-consistent calculation

     Number of k-points >= 100: set verbosity='high' to print the bands.

     the Fermi energy is    13.1451 ev

!    total energy              =    -111.57941993 Ry
     estimated scf accuracy    <          4.8E-11 Ry
     smearing contrib. (-TS)   =       0.00027169 Ry
     internal energy E=F+TS    =    -111.57969163 Ry

     The total energy is F=E-TS. E is the sum of the following terms:
     one-electron contribution =      13.49258263 Ry
     hartree contribution      =      13.58421422 Ry
     xc contribution           =     -52.93631435 Ry
     ewald contribution        =     -85.72017412 Ry

     total magnetization       =     5.19 Bohr mag/cell
     absolute magnetization    =     5.42 Bohr mag/cell

     convergence has been achieved in  10 iterations

     Forces acting on atoms (cartesian axes, Ry/au):

     atom    1 type  1   force =     0.00000000   -0.00000081    0.00000000
     atom    2 type  1   force =     0.00000000    0.00000081    0.00000000

     Total force =     0.000001     Total SCF correction =     0.000000


     Computing stress (Cartesian axis) and pressure

          total   stress  (Ry/bohr**3)                   (kbar)     P=       34.07
  -0.00002177   0.00000000   0.00000000           -3.20        0.00        0.00
   0.00000000  -0.00002181   0.00000000            0.00       -3.21        0.00
   0.00000000  -0.00000000   0.00073841            0.00       -0.00      108.62

     Energy error            =      4.9E-03 Ry
     Gradient error          =      8.1E-07 Ry/Bohr
     Cell gradient error     =      1.1E+02 kbar

     number of scf cycles    =   3
     number of bfgs steps    =   2

     enthalpy           old  =    -111.5745686005 Ry
     enthalpy           new  =    -111.5794199345 Ry

     CASE: enthalpy          _new < enthalpy          _old

     new trust radius        =       0.0488302751 bohr
     new conv_thr            =       0.0000000010 Ry

     new unit-cell volume =    158.45715 a.u.^3 (    23.48093 Ang^3 )
     density =      7.89856 g/cm^3

CELL_PARAMETERS (angstrom)
   2.512664320   0.000000000   0.000000000
  -1.256332160   2.176023963  -0.000000000
   0.000000000   0.000000000   4.294544257

ATOMIC_POSITIONS (angstrom)
Fe               0.0000000000       -0.0000024972        0.0000000000
Fe               0.0000000000        1.4506891160        2.1472721285


     Message from routine punch:
     Nothing written, as per user request (disk_io='none')
     NEW-OLD atomic charge density approx. for the potential
     New effective cutoffs (rho, wfc):  346.14   34.62

     Check: negative core charge=   -0.000002
     Generating pointlists ...
     new r_m :   0.3839 (alat units)  1.9586 (a.u.) for type    1

     total cpu time spent up to now is       57.4 secs

     Self-consistent Calculation

     iteration #  1     ecut=    30.00 Ry     beta= 0.50
     Davidson diagonalization with overlap
     ethr =  1.00E-06,  avg # of iterations =  6.5

     total cpu time spent up to now is       61.0 secs

     total energy              =    -111.58058986 Ry
     estimated scf accuracy    <       0.00028083 Ry

     total magnetization       =     5.21 Bohr mag/cell
     absolute magnetization    =     5.43 Bohr mag/cell

     iteration #  2     ecut=    30.00 Ry     beta= 0.50
     Davidson diagonalization with overlap
     ethr =  1.76E-06,  avg # of iterations =  1.1

     total cpu time spent up to now is       62.3 secs

     total energy              =    -111.58063964 Ry
     estimated scf accuracy    <       0.00006099 Ry

     total magnetization       =     5.22 Bohr mag/cell
     absolute magnetization    =     5.43 Bohr mag/cell

     iteration #  3     ecut=    30.00 Ry     beta= 0.50
     Davidson diagonalization with overlap
     ethr =  3.81E-07,  avg # of iterations =  2.0

     total cpu time spent up to now is       63.6 secs

     total energy              =    -111.58065099 Ry
     estimated scf accuracy    <       0.00002590 Ry

     total magnetization       =     5.22 Bohr mag/cell
     absolute magnetization    =     5.43 Bohr mag/cell

     iteration #  4     ecut=    30.00 Ry     beta= 0.50
     Davidson diagonalization with overlap
     ethr =  1.62E-07,  avg # of iterations =  2.1

     total cpu time spent up to now is       64.9 secs

     total energy              =    -111.58064355 Ry
     estimated scf accuracy    <       0.00031972 Ry

     total magnetization       =     5.22 Bohr mag/cell
     absolute magnetization    =     5.43 Bohr mag/cell

     iteration #  5     ecut=    30.00 Ry     beta= 0.50
     Davidson diagonalization with overlap
     ethr =  1.62E-07,  avg # of iterations =  1.3

     total cpu time spent up to now is       66.0 secs

     total energy              =    -111.58066397 Ry
     estimated scf accuracy    <       0.00000266 Ry

     total magnetization       =     5.22 Bohr mag/cell
     absolute magnetization    =     5.43 Bohr mag/cell

     iteration #  6     ecut=    30.00 Ry     beta= 0.50
     Davidson diagonalization with overlap
     ethr =  1.67E-08,  avg # of iterations =  2.7

     total cpu time spent up to now is       67.4 secs

     total energy              =    -111.58066569 Ry
     estimated scf accuracy    <       0.00000049 Ry

     total magnetization       =     5.22 Bohr mag/cell
     absolute magnetization    =     5.43 Bohr mag/cell

     iteration #  7     ecut=    30.00 Ry     beta= 0.50
     Davidson diagonalization with overlap
     ethr =  3.06E-09,  avg # of iterations =  4.1

     total cpu time spent up to now is       69.1 secs

     total energy              =    -111.58066593 Ry
     estimated scf accuracy    <       0.00000014 Ry

     total magnetization       =     5.22 Bohr mag/cell
     absolute magnetization    =     5.43 Bohr mag/cell

     iteration #  8     ecut=    30.00 Ry     beta= 0.50
     Davidson diagonalization with overlap
     ethr =  8.87E-10,  avg # of iterations =  4.0

     total cpu time spent up to now is       70.7 secs

     total energy              =    -111.58066600 Ry
     estimated scf accuracy    <          2.9E-09 Ry

     total magnetization       =     5.22 Bohr mag/cell
     absolute magnetization    =     5.43 Bohr mag/cell

     iteration #  9     ecut=    30.00 Ry     beta= 0.50
     Davidson diagonalization with overlap
     ethr =  1.83E-11,  avg # of iterations =  7.5

     total cpu time spent up to now is       73.6 secs

     total energy              =    -111.58066602 Ry
     estimated scf accuracy    <          1.3E-09 Ry

     total magnetization       =     5.22 Bohr mag/cell
     absolute magnetization    =     5.43 Bohr mag/cell

     iteration # 10     ecut=    30.00 Ry     beta= 0.50
     Davidson diagonalization with overlap
     ethr =  8.03E-12,  avg # of iterations =  2.1

     Magnetic moment per site  (integrated on atomic sphere of radius R)
     atom   1 (R=0.384)  charge=  6.5570  magn=  2.6468
     atom   2 (R=0.384)  charge=  6.5573  magn=  2.6468

     total cpu time spent up to now is       74.8 secs

     End of self-consistent calculation

     Number of k-points >= 100: set verbosity='high' to print the bands.

     the Fermi energy is    13.3015 ev

!    total energy              =    -111.58066602 Ry
     estimated scf accuracy    <          3.3E-11 Ry
     smearing contrib. (-TS)   =       0.00031074 Ry
     internal energy E=F+TS    =    -111.58097676 Ry

     The total energy is F=E-TS. E is the sum of the following terms:
     one-electron contribution =      13.95218033 Ry
     hartree contribution      =      13.47568279 Ry
     xc contribution           =     -52.95956944 Ry
     ewald contribution        =     -86.04927044 Ry

     total magnetization       =     5.22 Bohr mag/cell
     absolute magnetization    =     5.43 Bohr mag/cell

     convergence has been achieved in  10 iterations

     Forces acting on atoms (cartesian axes, Ry/au):

     atom    1 type  1   force =     0.00000000   -0.00000095    0.00000000
     atom    2 type  1   force =     0.00000000    0.00000095    0.00000000

     Total force =     0.000001     Total SCF correction =     0.000000


     Computing stress (Cartesian axis) and pressure

          total   stress  (Ry/bohr**3)                   (kbar)     P=       64.34
   0.00036368   0.00000000   0.00000000           53.50        0.00        0.00
   0.00000000   0.00036364   0.00000000            0.00       53.49        0.00
   0.00000000   0.00000000   0.00058480            0.00        0.00       86.03

     Energy error            =      1.2E-03 Ry
     Gradient error          =      9.5E-07 Ry/Bohr
     Cell gradient error     =      8.6E+01 kbar

     number of scf cycles    =   4
     number of bfgs steps    =   3

     enthalpy           old  =    -111.5794199345 Ry
     enthalpy           new  =    -111.5806660178 Ry

     CASE: enthalpy          _new < enthalpy          _old

     new trust radius        =       0.0422077168 bohr
     new conv_thr            =       0.0000000010 Ry

     new unit-cell volume =    162.54881 a.u.^3 (    24.08725 Ang^3 )
     density =      7.69974 g/cm^3

CELL_PARAMETERS (angstrom)
   2.523832052   0.000000000   0.000000000
  -1.261916026   2.185692332   0.000000000
   0.000000000   0.000000000   4.366542688

ATOMIC_POSITIONS (angstrom)
Fe               0.0000000000       -0.0000033084       -0.0000000000
Fe               0.0000000000        1.4571355240        2.1832713440


     Message from routine punch:
     Nothing written, as per user request (disk_io='none')
     NEW-OLD atomic charge density approx. for the potential
     New effective cutoffs (rho, wfc):  343.07   34.31

     Check: negative core charge=   -0.000003
     Generating pointlists ...

     total cpu time spent up to now is       75.5 secs

     Self-consistent Calculation

     iteration #  1     ecut=    30.00 Ry     beta= 0.50
     Davidson diagonalization with overlap
     ethr =  1.00E-06,  avg # of iterations =  5.3

     total cpu time spent up to now is       78.1 secs

     total energy              =    -111.58192858 Ry
     estimated scf accuracy    <       0.00008551 Ry

     total magnetization       =     5.24 Bohr mag/cell
     absolute magnetization    =     5.46 Bohr mag/cell

     iteration #  2     ecut=    30.00 Ry     beta= 0.50
     Davidson diagonalization with overlap
     ethr =  5.34E-07,  avg # of iterations =  1.5

     total cpu time spent up to now is       79.4 secs

     total energy              =    -111.58195344 Ry
     estimated scf accuracy    <       0.00003154 Ry

     total magnetization       =     5.25 Bohr mag/cell
     absolute magnetization    =     5.46 Bohr mag/cell

     iteration #  3     ecut=    30.00 Ry     beta= 0.50
     Davidson diagonalization with overlap
     ethr =  1.97E-07,  avg # of iterations =  1.5

     total cpu time spent up to now is       80.6 secs

     total energy              =    -111.58195185 Ry
     estimated scf accuracy    <       0.00003614 Ry

     total magnetization       =     5.25 Bohr mag/cell
     absolute magnetization    =     5.47 Bohr mag/cell

     iteration #  4     ecut=    30.00 Ry     beta= 0.50
     Davidson diagonalization with overlap
     ethr =  1.97E-07,  avg # of iterations =  1.8

     total cpu time spent up to now is       81.7 secs

     total energy              =    -111.58195029 Ry
     estimated scf accuracy    <       0.00027060 Ry

     total magnetization       =     5.25 Bohr mag/cell
     absolute magnetization    =     5.47 Bohr mag/cell

     iteration #  5     ecut=    30.00 Ry     beta= 0.50
     Davidson diagonalization with overlap
     ethr =  1.97E-07,  avg # of iterations =  1.0

     total cpu time spent up to now is       82.8 secs

     total energy              =    -111.58196514 Ry
     estimated scf accuracy    <       0.00000033 Ry

     total magnetization       =     5.25 Bohr mag/cell
     absolute magnetization    =     5.47 Bohr mag/cell

     iteration #  6     ecut=    30.00 Ry     beta= 0.50
     Davidson diagonalization with overlap
     ethr =  2.06E-09,  avg # of iterations =  4.9

     total cpu time spent up to now is       84.9 secs

     total energy              =    -111.58196577 Ry
     estimated scf accuracy    <       0.00000034 Ry

     total magnetization       =     5.25 Bohr mag/cell
     absolute magnetization    =     5.47 Bohr mag/cell

     iteration #  7     ecut=    30.00 Ry     beta= 0.50
     Davidson diagonalization with overlap
     ethr =  2.06E-09,  avg # of iterations =  1.6

     total cpu time spent up to now is       86.0 secs

     total energy              =    -111.58196583 Ry
     estimated scf accuracy    <          6.0E-09 Ry

     total magnetization       =     5.25 Bohr mag/cell
     absolute magnetization    =     5.47 Bohr mag/cell

     iteration #  8     ecut=    30.00 Ry     beta= 0.50
     Davidson diagonalization with overlap
     ethr =  3.73E-11,  avg # of iterations =  8.2

     total cpu time spent up to now is       88.9 secs

     total energy              =    -111.58196586 Ry
     estimated scf accuracy    <          1.2E-09 Ry

     total magnetization       =     5.25 Bohr mag/cell
     absolute magnetization    =     5.47 Bohr mag/cell

     iteration #  9     ecut=    30.00 Ry     beta= 0.50
     Davidson diagonalization with overlap
     ethr =  7.43E-12,  avg # of iterations =  4.1

     Magnetic moment per site  (integrated on atomic sphere of radius R)
     atom   1 (R=0.384)  charge=  6.5276  magn=  2.6653
     atom   2 (R=0.384)  charge=  6.5283  magn=  2.6654

     total cpu time spent up to now is       90.8 secs

     End of self-consistent calculation

     Number of k-points >= 100: set verbosity='high' to print the bands.

     the Fermi energy is    12.8969 ev

!    total energy              =    -111.58196586 Ry
     estimated scf accuracy    <          2.1E-10 Ry
     smearing contrib. (-TS)   =       0.00009891 Ry
     internal energy E=F+TS    =    -111.58206477 Ry

     The total energy is F=E-TS. E is the sum of the following terms:
     one-electron contribution =      12.89201131 Ry
     hartree contribution      =      13.76060581 Ry
     xc contribution           =     -52.92960128 Ry
     ewald contribution        =     -85.30508061 Ry

     total magnetization       =     5.25 Bohr mag/cell
     absolute magnetization    =     5.47 Bohr mag/cell

     convergence has been achieved in   9 iterations

     Forces acting on atoms (cartesian axes, Ry/au):

     atom    1 type  1   force =     0.00000000   -0.00000114    0.00000000
     atom    2 type  1   force =    -0.00000000    0.00000114   -0.00000000

     Total force =     0.000002     Total SCF correction =     0.000000


     Computing stress (Cartesian axis) and pressure

          total   stress  (Ry/bohr**3)                   (kbar)     P=       17.47
   0.00009957  -0.00000000  -0.00000000           14.65       -0.00       -0.00
  -0.00000000   0.00009953   0.00000000           -0.00       14.64        0.00
  -0.00000000   0.00000000   0.00015716           -0.00        0.00       23.12

     Energy error            =      1.3E-03 Ry
     Gradient error          =      1.1E-06 Ry/Bohr
     Cell gradient error     =      2.3E+01 kbar

     number of scf cycles    =   5
     number of bfgs steps    =   4

     enthalpy           old  =    -111.5806660178 Ry
     enthalpy           new  =    -111.5819658592 Ry

     CASE: enthalpy          _new < enthalpy          _old

     new trust radius        =       0.0153946494 bohr
     new conv_thr            =       0.0000000010 Ry

     new unit-cell volume =    164.11822 a.u.^3 (    24.31981 Ang^3 )
     density =      7.62611 g/cm^3

CELL_PARAMETERS (angstrom)
   2.528367858   0.000000000   0.000000000
  -1.264183929   2.189616740   0.000000000
  -0.000000000   0.000000000   4.392905129

ATOMIC_POSITIONS (angstrom)
Fe              -0.0000000000       -0.0000041662       -0.0000000000
Fe              -0.0000000000        1.4597526610        2.1964525644


     Message from routine punch:
     Nothing written, as per user request (disk_io='none')
     NEW-OLD atomic charge density approx. for the potential
     New effective cutoffs (rho, wfc):  341.83   34.18

     Check: negative core charge=   -0.000003
     Generating pointlists ...

     total cpu time spent up to now is       91.5 secs

     Self-consistent Calculation

     iteration #  1     ecut=    30.00 Ry     beta= 0.50
     Davidson diagonalization with overlap
     ethr =  1.00E-06,  avg # of iterations =  3.6

     Threshold (ethr) on eigenvalues was too large:
     Diagonalizing with lowered threshold

     Davidson diagonalization with overlap
     ethr =  7.19E-08,  avg # of iterations =  2.3

     total cpu time spent up to now is       94.8 secs

     total energy              =    -111.58207393 Ry
     estimated scf accuracy    <       0.00001098 Ry

     total magnetization       =     5.26 Bohr mag/cell
     absolute magnetization    =     5.49 Bohr mag/cell

     iteration #  2     ecut=    30.00 Ry     beta= 0.50
     Davidson diagonalization with overlap
     ethr =  6.86E-08,  avg # of iterations =  1.4

     total cpu time spent up to now is       96.0 secs

     total energy              =    -111.58207584 Ry
     estimated scf accuracy    <       0.00000530 Ry

     total magnetization       =     5.26 Bohr mag/cell
     absolute magnetization    =     5.49 Bohr mag/cell

     iteration #  3     ecut=    30.00 Ry     beta= 0.50
     Davidson diagonalization with overlap
     ethr =  3.31E-08,  avg # of iterations =  2.1

     total cpu time spent up to now is       97.3 secs

     total energy              =    -111.58207228 Ry
     estimated scf accuracy    <       0.00009039 Ry

     total magnetization       =     5.26 Bohr mag/cell
     absolute magnetization    =     5.49 Bohr mag/cell

     iteration #  4     ecut=    30.00 Ry     beta= 0.50
     Davidson diagonalization with overlap
     ethr =  3.31E-08,  avg # of iterations =  1.8

     total cpu time spent up to now is       98.5 secs

     total energy              =    -111.58207815 Ry
     estimated scf accuracy    <       0.00000155 Ry

     total magnetization       =     5.26 Bohr mag/cell
     absolute magnetization    =     5.49 Bohr mag/cell

     iteration #  5     ecut=    30.00 Ry     beta= 0.50
     Davidson diagonalization with overlap
     ethr =  9.68E-09,  avg # of iterations =  1.6

     total cpu time spent up to now is       99.9 secs

     total energy              =    -111.58207844 Ry
     estimated scf accuracy    <       0.00000005 Ry

     total magnetization       =     5.26 Bohr mag/cell
     absolute magnetization    =     5.49 Bohr mag/cell

     iteration #  6     ecut=    30.00 Ry     beta= 0.50
     Davidson diagonalization with overlap
     ethr =  3.16E-10,  avg # of iterations =  4.4

     total cpu time spent up to now is      101.7 secs

     total energy              =    -111.58207850 Ry
     estimated scf accuracy    <       0.00000001 Ry

     total magnetization       =     5.26 Bohr mag/cell
     absolute magnetization    =     5.49 Bohr mag/cell

     iteration #  7     ecut=    30.00 Ry     beta= 0.50
     Davidson diagonalization with overlap
     ethr =  8.83E-11,  avg # of iterations =  3.8

     Magnetic moment per site  (integrated on atomic sphere of radius R)
     atom   1 (R=0.384)  charge=  6.5171  magn=  2.6720
     atom   2 (R=0.384)  charge=  6.5179  magn=  2.6721

     total cpu time spent up to now is      103.5 secs

     End of self-consistent calculation

     Number of k-points >= 100: set verbosity='high' to print the bands.

     the Fermi energy is    12.7476 ev

!    total energy              =    -111.58207850 Ry
     estimated scf accuracy    <          4.6E-10 Ry
     smearing contrib. (-TS)   =       0.00006098 Ry
     internal energy E=F+TS    =    -111.58213949 Ry

     The total energy is F=E-TS. E is the sum of the following terms:
     one-electron contribution =      12.49302222 Ry
     hartree contribution      =      13.86934376 Ry
     xc contribution           =     -52.91874497 Ry
     ewald contribution        =     -85.02576050 Ry

     total magnetization       =     5.26 Bohr mag/cell
     absolute magnetization    =     5.49 Bohr mag/cell

     convergence has been achieved in   7 iterations

     Forces acting on atoms (cartesian axes, Ry/au):

     atom    1 type  1   force =     0.00000000   -0.00000114    0.00000000
     atom    2 type  1   force =    -0.00000000    0.00000114   -0.00000000

     Total force =     0.000002     Total SCF correction =     0.000000
     SCF correction compared to forces is large: reduce conv_thr to get better values


     Computing stress (Cartesian axis) and pressure

          total   stress  (Ry/bohr**3)                   (kbar)     P=        1.05
   0.00000534  -0.00000000   0.00000000            0.79       -0.00        0.00
  -0.00000000   0.00000530  -0.00000000           -0.00        0.78       -0.00
   0.00000000  -0.00000000   0.00001087            0.00       -0.00        1.60

     Energy error            =      1.1E-04 Ry
     Gradient error          =      1.1E-06 Ry/Bohr
     Cell gradient error     =      1.6E+00 kbar

     number of scf cycles    =   6
     number of bfgs steps    =   5

     enthalpy           old  =    -111.5819658592 Ry
     enthalpy           new  =    -111.5820785036 Ry

     CASE: enthalpy          _new < enthalpy          _old

     new trust radius        =       0.0012420408 bohr
     new conv_thr            =       0.0000000010 Ry

     new unit-cell volume =    164.22174 a.u.^3 (    24.33515 Ang^3 )
     density =      7.62131 g/cm^3

CELL_PARAMETERS (angstrom)
   2.528554100   0.000000000   0.000000000
  -1.264277050   2.189774951   0.000000000
  -0.000000000   0.000000000   4.395034637

ATOMIC_POSITIONS (angstrom)
Fe               0.0000000000       -0.0000047586       -0.0000000000
Fe              -0.0000000000        1.4598587275        2.1975173185


     Message from routine punch:
     Nothing written, as per user request (disk_io='none')
     NEW-OLD atomic charge density approx. for the potential
     New effective cutoffs (rho, wfc):  341.78   34.18

     Check: negative core charge=   -0.000003
     Generating pointlists ...

     total cpu time spent up to now is      104.5 secs

     Self-consistent Calculation

     iteration #  1     ecut=    30.00 Ry     beta= 0.50
     Davidson diagonalization with overlap
     ethr =  1.00E-06,  avg # of iterations =  2.0

     Threshold (ethr) on eigenvalues was too large:
     Diagonalizing with lowered threshold

     Davidson diagonalization with overlap
     ethr =  9.61E-10,  avg # of iterations =  3.1

     total cpu time spent up to now is      108.3 secs

     total energy              =    -111.58207898 Ry
     estimated scf accuracy    <       0.00000014 Ry

     total magnetization       =     5.26 Bohr mag/cell
     absolute magnetization    =     5.49 Bohr mag/cell

     iteration #  2     ecut=    30.00 Ry     beta= 0.50
     Davidson diagonalization with overlap
     ethr =  8.61E-10,  avg # of iterations =  2.7

     total cpu time spent up to now is      109.7 secs

     total energy              =    -111.58207879 Ry
     estimated scf accuracy    <       0.00000444 Ry

     total magnetization       =     5.26 Bohr mag/cell
     absolute magnetization    =     5.49 Bohr mag/cell

     iteration #  3     ecut=    30.00 Ry     beta= 0.50
     Davidson diagonalization with overlap
     ethr =  8.61E-10,  avg # of iterations =  2.3

     total cpu time spent up to now is      111.2 secs

     total energy              =    -111.58207905 Ry
     estimated scf accuracy    <       0.00000002 Ry

     total magnetization       =     5.26 Bohr mag/cell
     absolute magnetization    =     5.49 Bohr mag/cell

     iteration #  4     ecut=    30.00 Ry     beta= 0.50
     Davidson diagonalization with overlap
     ethr =  1.43E-10,  avg # of iterations =  2.1

     total cpu time spent up to now is      112.6 secs

     total energy              =    -111.58207905 Ry
     estimated scf accuracy    <          6.4E-09 Ry

     total magnetization       =     5.26 Bohr mag/cell
     absolute magnetization    =     5.49 Bohr mag/cell

     iteration #  5     ecut=    30.00 Ry     beta= 0.50
     Davidson diagonalization with overlap
     ethr =  3.99E-11,  avg # of iterations =  1.5

     total cpu time spent up to now is      114.0 secs

     total energy              =    -111.58207905 Ry
     estimated scf accuracy    <          1.0E-09 Ry

     total magnetization       =     5.26 Bohr mag/cell
     absolute magnetization    =     5.49 Bohr mag/cell

     iteration #  6     ecut=    30.00 Ry     beta= 0.50
     Davidson diagonalization with overlap
     ethr =  6.37E-12,  avg # of iterations =  3.9

     Magnetic moment per site  (integrated on atomic sphere of radius R)
     atom   1 (R=0.384)  charge=  6.5164  magn=  2.6725
     atom   2 (R=0.384)  charge=  6.5172  magn=  2.6726

     total cpu time spent up to now is      116.1 secs

     End of self-consistent calculation

     Number of k-points >= 100: set verbosity='high' to print the bands.

     the Fermi energy is    12.7377 ev

!    total energy              =    -111.58207905 Ry
     estimated scf accuracy    <          3.5E-10 Ry
     smearing contrib. (-TS)   =       0.00005913 Ry
     internal energy E=F+TS    =    -111.58213819 Ry

     The total energy is F=E-TS. E is the sum of the following terms:
     one-electron contribution =      12.46641807 Ry
     hartree contribution      =      13.87677304 Ry
     xc contribution           =     -52.91810251 Ry
     ewald contribution        =     -85.00722679 Ry

     total magnetization       =     5.26 Bohr mag/cell
     absolute magnetization    =     5.49 Bohr mag/cell

     convergence has been achieved in   6 iterations

     Forces acting on atoms (cartesian axes, Ry/au):

     atom    1 type  1   force =     0.00000000   -0.00000118    0.00000000
     atom    2 type  1   force =    -0.00000000    0.00000118   -0.00000000

     Total force =     0.000002     Total SCF correction =     0.000000
     SCF correction compared to forces is large: reduce conv_thr to get better values


     Computing stress (Cartesian axis) and pressure

          total   stress  (Ry/bohr**3)                   (kbar)     P=        0.19
   0.00000137  -0.00000000   0.00000000            0.20       -0.00        0.00
  -0.00000000   0.00000132  -0.00000000           -0.00        0.19       -0.00
   0.00000000  -0.00000000   0.00000112            0.00       -0.00        0.16

     Energy error            =      5.5E-07 Ry
     Gradient error          =      1.2E-06 Ry/Bohr
     Cell gradient error     =      2.0E-01 kbar

     bfgs converged in   7 scf cycles and   6 bfgs steps
     (criteria: energy <  1.0E-04 Ry, force <  1.0E-03 Ry/Bohr, cell <  5.0E-01 kbar)

     End of BFGS Geometry Optimization

     Final enthalpy           =    -111.5820790521 Ry

     File /home/bond/Work/Lab4/1A/Fe_hcp_nk_11_relax/pwscf.bfgs deleted, as requested
Begin final coordinates
     new unit-cell volume =    164.22174 a.u.^3 (    24.33515 Ang^3 )
     density =      7.62131 g/cm^3

CELL_PARAMETERS (angstrom)
   2.528554100   0.000000000   0.000000000
  -1.264277050   2.189774951   0.000000000
  -0.000000000   0.000000000   4.395034637

ATOMIC_POSITIONS (angstrom)
Fe               0.0000000000       -0.0000047586       -0.0000000000
Fe              -0.0000000000        1.4598587275        2.1975173185
End final coordinates


     Message from routine punch:
     Nothing written, as per user request (disk_io='none')

     Final scf calculation at the relaxed structure.
     The G-vectors are recalculated for the final unit cell
     Results may differ from those at the preceding step.

     Parallelization info
     --------------------
     sticks:   dense  smooth     PW     G-vecs:    dense   smooth      PW
     Min         237      98     30                 7211     1847     356
     Max         238     101     31                 7216     1848     357
     Sum         475     199     61                14427     3695     713

     Using Slab Decomposition



     bravais-lattice index     =            0
     lattice parameter (alat)  =       5.1023  a.u.
     unit-cell volume          =     164.2217 (a.u.)^3
     number of atoms/cell      =            2
     number of atomic types    =            1
     number of electrons       =        16.00
     number of Kohn-Sham states=           12
     kinetic-energy cutoff     =      30.0000  Ry
     charge density cutoff     =     300.0000  Ry
     scf convergence threshold =      1.0E-09
     mixing beta               =       0.5000
     number of iterations used =            8  plain     mixing
     press convergence thresh. =      5.0E-01
     Exchange-correlation=  SLA  PW   PBE  PBE
                           (   1   4   3   4   0   0   0)

     celldm(1)=   5.102261  celldm(2)=   0.000000  celldm(3)=   0.000000
     celldm(4)=   0.000000  celldm(5)=   0.000000  celldm(6)=   0.000000

     crystal axes: (cart. coord. in units of alat)
               a(1) = (   0.936502   0.000000   0.000000 )  
               a(2) = (  -0.468251   0.811028   0.000000 )  
               a(3) = (  -0.000000   0.000000   1.627791 )  

     reciprocal axes: (cart. coord. in units 2 pi/alat)
               b(1) = (  1.067804  0.616502 -0.000000 )  
               b(2) = ( -0.000000  1.233003 -0.000000 )  
               b(3) = (  0.000000 -0.000000  0.614330 )  


     PseudoPot. # 1 for Fe read from file:
     /home/bond/Software/QE/qe-7.4.1/pseudo/Fe.pbe-nd-rrkjus.UPF
     MD5 check sum: 398036227a04b607635f6f5e8dfd8242
     Pseudo is Ultrasoft + core correction, Zval =  8.0
     Generated by new atomic code, or converted to UPF format
     Using radial grid of  957 points,  6 beta functions with: 
                l(1) =   0
                l(2) =   0
                l(3) =   1
                l(4) =   1
                l(5) =   2
                l(6) =   2
     Q(r) pseudized with 0 coefficients 


     atomic species   valence    mass     pseudopotential
     Fe                8.00    55.84500     Fe( 1.00)

     Starting magnetic structure 
     atomic species   magnetization
     Fe              0.410

      4 Sym. Ops. (no inversion) found



   Cartesian axes

     site n.     atom                  positions (alat units)
         1        Fe     tau(   1) = (   0.0000000  -0.0000018  -0.0000000  )
         2        Fe     tau(   2) = (  -0.0000000   0.5406884   0.8138953  )

     number of k points=   108  Methfessel-Paxton smearing, width (Ry)=  0.0200

     Number of k-points >= 100: set verbosity='high' to print them.

     Dense  grid:    14427 G-vectors     FFT dimensions: (  27,  27,  45)

     Smooth grid:     3695 G-vectors     FFT dimensions: (  18,  18,  30)

     Estimated max dynamical RAM per process >      41.27 MB

     Estimated total dynamical RAM >      82.55 MB

     Check: negative core charge=   -0.000005
     Generating pointlists ...

     Initial potential from superposition of free atoms

     starting charge      15.9987, renormalised to      16.0000
     Starting wfcs are   12 randomized atomic wfcs

     total cpu time spent up to now is      117.3 secs

     Self-consistent Calculation

     iteration #  1     ecut=    30.00 Ry     beta= 0.50
     Davidson diagonalization with overlap
     c_bands:  1 eigenvalues not converged
     c_bands:  1 eigenvalues not converged
     c_bands:  1 eigenvalues not converged
     c_bands:  1 eigenvalues not converged
     c_bands:  1 eigenvalues not converged
     c_bands:  1 eigenvalues not converged
     c_bands:  1 eigenvalues not converged
     c_bands:  1 eigenvalues not converged
     c_bands:  1 eigenvalues not converged
     c_bands:  1 eigenvalues not converged
     c_bands:  1 eigenvalues not converged
     c_bands:  1 eigenvalues not converged
     c_bands:  1 eigenvalues not converged
     c_bands:  1 eigenvalues not converged
     c_bands:  1 eigenvalues not converged
     c_bands:  1 eigenvalues not converged
     c_bands:  1 eigenvalues not converged
     c_bands:  1 eigenvalues not converged
     c_bands:  1 eigenvalues not converged
     c_bands:  1 eigenvalues not converged
     c_bands:  1 eigenvalues not converged
     c_bands:  1 eigenvalues not converged
     c_bands:  1 eigenvalues not converged
     c_bands:  2 eigenvalues not converged
     c_bands:  1 eigenvalues not converged
     c_bands:  1 eigenvalues not converged
     c_bands:  1 eigenvalues not converged
     c_bands:  1 eigenvalues not converged
     c_bands:  1 eigenvalues not converged
     c_bands:  1 eigenvalues not converged
     c_bands:  1 eigenvalues not converged
     c_bands:  1 eigenvalues not converged
     c_bands:  1 eigenvalues not converged
     c_bands:  1 eigenvalues not converged
     c_bands:  1 eigenvalues not converged
     c_bands:  1 eigenvalues not converged
     ethr =  1.00E-06,  avg # of iterations = 16.0

     total cpu time spent up to now is      122.6 secs

     total energy              =    -111.30888394 Ry
     estimated scf accuracy    <       0.71060003 Ry

     total magnetization       =     4.92 Bohr mag/cell
     absolute magnetization    =     4.92 Bohr mag/cell

     iteration #  2     ecut=    30.00 Ry     beta= 0.50
     Davidson diagonalization with overlap
     ethr =  4.44E-03,  avg # of iterations =  2.4

     total cpu time spent up to now is      123.9 secs

     total energy              =    -111.54967510 Ry
     estimated scf accuracy    <       0.15734643 Ry

     total magnetization       =     5.23 Bohr mag/cell
     absolute magnetization    =     5.25 Bohr mag/cell

     iteration #  3     ecut=    30.00 Ry     beta= 0.50
     Davidson diagonalization with overlap
     ethr =  9.83E-04,  avg # of iterations =  1.4

     total cpu time spent up to now is      124.9 secs

     total energy              =    -111.57335607 Ry
     estimated scf accuracy    <       0.01009159 Ry

     total magnetization       =     5.25 Bohr mag/cell
     absolute magnetization    =     5.30 Bohr mag/cell

     iteration #  4     ecut=    30.00 Ry     beta= 0.50
     Davidson diagonalization with overlap
     ethr =  6.31E-05,  avg # of iterations =  3.2

     total cpu time spent up to now is      126.4 secs

     total energy              =    -111.57979281 Ry
     estimated scf accuracy    <       0.00959777 Ry

     total magnetization       =     5.27 Bohr mag/cell
     absolute magnetization    =     5.41 Bohr mag/cell

     iteration #  5     ecut=    30.00 Ry     beta= 0.50
     Davidson diagonalization with overlap
     ethr =  6.00E-05,  avg # of iterations =  1.2

     total cpu time spent up to now is      127.3 secs

     total energy              =    -111.57845560 Ry
     estimated scf accuracy    <       0.03386010 Ry

     total magnetization       =     5.26 Bohr mag/cell
     absolute magnetization    =     5.43 Bohr mag/cell

     iteration #  6     ecut=    30.00 Ry     beta= 0.50
     Davidson diagonalization with overlap
     ethr =  6.00E-05,  avg # of iterations =  2.3

     total cpu time spent up to now is      128.5 secs

     total energy              =    -111.58122626 Ry
     estimated scf accuracy    <       0.00470332 Ry

     total magnetization       =     5.26 Bohr mag/cell
     absolute magnetization    =     5.48 Bohr mag/cell

     iteration #  7     ecut=    30.00 Ry     beta= 0.50
     Davidson diagonalization with overlap
     ethr =  2.94E-05,  avg # of iterations =  1.6

     total cpu time spent up to now is      129.5 secs

     total energy              =    -111.58150829 Ry
     estimated scf accuracy    <       0.00043211 Ry

     total magnetization       =     5.26 Bohr mag/cell
     absolute magnetization    =     5.48 Bohr mag/cell

     iteration #  8     ecut=    30.00 Ry     beta= 0.50
     Davidson diagonalization with overlap
     ethr =  2.70E-06,  avg # of iterations =  2.7

     total cpu time spent up to now is      130.9 secs

     total energy              =    -111.58164223 Ry
     estimated scf accuracy    <       0.00000378 Ry

     total magnetization       =     5.26 Bohr mag/cell
     absolute magnetization    =     5.49 Bohr mag/cell

     iteration #  9     ecut=    30.00 Ry     beta= 0.50
     Davidson diagonalization with overlap
     ethr =  2.37E-08,  avg # of iterations =  8.2

     total cpu time spent up to now is      133.8 secs

     total energy              =    -111.58165436 Ry
     estimated scf accuracy    <       0.00001212 Ry

     total magnetization       =     5.26 Bohr mag/cell
     absolute magnetization    =     5.49 Bohr mag/cell

     iteration # 10     ecut=    30.00 Ry     beta= 0.50
     Davidson diagonalization with overlap
     ethr =  2.37E-08,  avg # of iterations =  2.7

     total cpu time spent up to now is      135.1 secs

     total energy              =    -111.58165594 Ry
     estimated scf accuracy    <       0.00000040 Ry

     total magnetization       =     5.26 Bohr mag/cell
     absolute magnetization    =     5.49 Bohr mag/cell

     iteration # 11     ecut=    30.00 Ry     beta= 0.50
     Davidson diagonalization with overlap
     ethr =  2.49E-09,  avg # of iterations =  4.9

     total cpu time spent up to now is      137.1 secs

     total energy              =    -111.58165588 Ry
     estimated scf accuracy    <       0.00000151 Ry

     total magnetization       =     5.26 Bohr mag/cell
     absolute magnetization    =     5.49 Bohr mag/cell

     iteration # 12     ecut=    30.00 Ry     beta= 0.50
     Davidson diagonalization with overlap
     ethr =  2.49E-09,  avg # of iterations =  3.8

     total cpu time spent up to now is      138.6 secs

     total energy              =    -111.58165636 Ry
     estimated scf accuracy    <       0.00000032 Ry

     total magnetization       =     5.26 Bohr mag/cell
     absolute magnetization    =     5.49 Bohr mag/cell

     iteration # 13     ecut=    30.00 Ry     beta= 0.50
     Davidson diagonalization with overlap
     ethr =  1.99E-09,  avg # of iterations =  1.9

     total cpu time spent up to now is      139.7 secs

     total energy              =    -111.58165640 Ry
     estimated scf accuracy    <       0.00000001 Ry

     total magnetization       =     5.26 Bohr mag/cell
     absolute magnetization    =     5.49 Bohr mag/cell

     iteration # 14     ecut=    30.00 Ry     beta= 0.50
     Davidson diagonalization with overlap
     ethr =  7.73E-11,  avg # of iterations =  4.7

     total cpu time spent up to now is      141.6 secs

     total energy              =    -111.58165641 Ry
     estimated scf accuracy    <          3.2E-09 Ry

     total magnetization       =     5.26 Bohr mag/cell
     absolute magnetization    =     5.49 Bohr mag/cell

     iteration # 15     ecut=    30.00 Ry     beta= 0.50
     Davidson diagonalization with overlap
     ethr =  1.99E-11,  avg # of iterations =  3.6

     total cpu time spent up to now is      143.0 secs

     total energy              =    -111.58165641 Ry
     estimated scf accuracy    <          1.3E-09 Ry

     total magnetization       =     5.26 Bohr mag/cell
     absolute magnetization    =     5.49 Bohr mag/cell

     iteration # 16     ecut=    30.00 Ry     beta= 0.50
     Davidson diagonalization with overlap
     ethr =  8.30E-12,  avg # of iterations =  3.3

     Magnetic moment per site  (integrated on atomic sphere of radius R)
     atom   1 (R=0.384)  charge=  6.5163  magn=  2.6724
     atom   2 (R=0.384)  charge=  6.5165  magn=  2.6725

     total cpu time spent up to now is      144.3 secs

     End of self-consistent calculation

     Number of k-points >= 100: set verbosity='high' to print the bands.

     the Fermi energy is    12.7392 ev

!    total energy              =    -111.58165641 Ry
     estimated scf accuracy    <          3.9E-10 Ry
     smearing contrib. (-TS)   =       0.00005962 Ry
     internal energy E=F+TS    =    -111.58171603 Ry

     The total energy is F=E-TS. E is the sum of the following terms:
     one-electron contribution =      12.46716103 Ry
     hartree contribution      =      13.87753160 Ry
     xc contribution           =     -52.91918187 Ry
     ewald contribution        =     -85.00722679 Ry

     total magnetization       =     5.26 Bohr mag/cell
     absolute magnetization    =     5.49 Bohr mag/cell

     convergence has been achieved in  16 iterations

     Forces acting on atoms (cartesian axes, Ry/au):

     atom    1 type  1   force =     0.00000000   -0.00000150    0.00000000
     atom    2 type  1   force =    -0.00000000    0.00000150   -0.00000000

     Total force =     0.000002     Total SCF correction =     0.000000


     Computing stress (Cartesian axis) and pressure

          total   stress  (Ry/bohr**3)                   (kbar)     P=       -0.70
  -0.00001003   0.00000000  -0.00000000           -1.47        0.00       -0.00
   0.00000000  -0.00001008   0.00000000            0.00       -1.48        0.00
  -0.00000000   0.00000000   0.00000578           -0.00        0.00        0.85

     Message from routine punch:
     Nothing written, as per user request (disk_io='none')

     init_run     :      1.41s CPU      1.52s WALL (       2 calls)
     electrons    :    121.62s CPU    137.18s WALL (       8 calls)
     update_pot   :      0.12s CPU      0.12s WALL (       6 calls)
     forces       :      0.93s CPU      0.95s WALL (       8 calls)
     stress       :      4.81s CPU      4.91s WALL (       8 calls)

     Called by init_run:
     wfcinit      :      0.77s CPU      0.87s WALL (       2 calls)
     potinit      :      0.16s CPU      0.17s WALL (       2 calls)
     hinit0       :      0.39s CPU      0.39s WALL (       2 calls)

     Called by electrons:
     c_bands      :    102.04s CPU    115.65s WALL (      80 calls)
     sum_band     :     16.25s CPU     18.12s WALL (      80 calls)
     v_of_rho     :      1.44s CPU      1.48s WALL (      86 calls)
     newd         :      2.00s CPU      2.04s WALL (      86 calls)
     mix_rho      :      0.10s CPU      0.11s WALL (      80 calls)

     Called by c_bands:
     init_us_2    :      2.28s CPU      2.56s WALL (   38448 calls)
     cegterg      :     95.44s CPU    108.21s WALL (   17280 calls)

     Called by *egterg:
     cdiaghg      :      8.74s CPU      9.86s WALL (   71180 calls)
     h_psi        :     77.10s CPU     87.52s WALL (   73340 calls)
     s_psi        :      1.51s CPU      1.73s WALL (   73340 calls)
     g_psi        :      0.44s CPU      0.49s WALL (   55628 calls)

     Called by h_psi:
     h_psi:calbec :      2.87s CPU      3.27s WALL (   73340 calls)
     vloc_psi     :     72.08s CPU     81.83s WALL (   73340 calls)
     add_vuspsi   :      1.60s CPU      1.82s WALL (   73340 calls)

     General routines
     calbec       :      4.68s CPU      5.23s WALL (  119996 calls)
     fft          :      0.77s CPU      0.80s WALL (    2464 calls)
     ffts         :      0.13s CPU      0.14s WALL (     332 calls)
     fftw         :     73.03s CPU     83.06s WALL ( 1469558 calls)
     interpolate  :      0.17s CPU      0.17s WALL (     172 calls)

     Parallel routines

     PWSCF        :   2m 9.17s CPU   2m24.98s WALL


   This run was terminated on:  18: 2:23  20Oct2025            

=------------------------------------------------------------------------------=
   JOB DONE.
=------------------------------------------------------------------------------=
