
     Program PWSCF v.7.4.1 starts on  8Oct2025 at 21:48:16 

     This program is part of the open-source Quantum ESPRESSO suite
     for quantum simulation of materials; please cite
         "P. Giannozzi et al., J. Phys.:Condens. Matter 21 395502 (2009);
         "P. Giannozzi et al., J. Phys.:Condens. Matter 29 465901 (2017);
         "P. Giannozzi et al., J. Chem. Phys. 152 154105 (2020);
          URL http://www.quantum-espresso.org", 
     in publications or presentations arising from this work. More details at
     http://www.quantum-espresso.org/quote

     Parallel version (MPI), running on     1 processors

     MPI processes distributed on     1 nodes
     871 MiB available memory on the printing compute node when the environment starts

     Waiting for input...
     Reading input from standard input
Warning: card &CELL ignored
Warning: card / ignored

     Current dimensions of program PWSCF are:
     Max number of different atomic species (ntypx) = 10
     Max number of k-points (npk) =  40000
     Max angular momentum in pseudopotentials (lmaxx) =  4
     Message from routine setup:
     using ibrav=0 with symmetry is DISCOURAGED, use correct ibrav instead

     Subspace diagonalization in iterative solution of the eigenvalue problem:
     a serial algorithm will be used


     G-vector sticks info
     --------------------
     sticks:   dense  smooth     PW     G-vecs:    dense   smooth      PW
     Sum         583     583    187                 9257     9257    1639

     Using Slab Decomposition



     bravais-lattice index     =            0
     lattice parameter (alat)  =       7.7502  a.u.
     unit-cell volume          =     329.1703 (a.u.)^3
     number of atoms/cell      =            2
     number of atomic types    =            1
     number of electrons       =        28.00
     number of Kohn-Sham states=           14
     kinetic-energy cutoff     =      35.0000  Ry
     charge density cutoff     =     140.0000  Ry
     scf convergence threshold =      1.0E-07
     mixing beta               =       0.5000
     number of iterations used =            8  plain     mixing
     Exchange-correlation=  SLA  PZ   NOGX NOGC
                           (   1   1   0   0   0   0   0)

     celldm(1)=   7.750181  celldm(2)=   0.000000  celldm(3)=   0.000000
     celldm(4)=   0.000000  celldm(5)=   0.000000  celldm(6)=   0.000000

     crystal axes: (cart. coord. in units of alat)
               a(1) = (   0.000000   0.707107   0.707107 )  
               a(2) = (   0.707107   0.000000   0.707107 )  
               a(3) = (   0.707107   0.707107   0.000000 )  

     reciprocal axes: (cart. coord. in units 2 pi/alat)
               b(1) = ( -0.707107  0.707107  0.707107 )  
               b(2) = (  0.707107 -0.707107  0.707107 )  
               b(3) = (  0.707107  0.707107 -0.707107 )  


     PseudoPot. # 1 for Ge read from file:
     /home/bond/Software/QE/qe-7.4.1/pseudo/ge_lda_v1.4.uspp.F.UPF
     MD5 check sum: bf9d52b59cc8a669818bb2b52e0c2ba0
     Pseudo is Ultrasoft + core correction, Zval = 14.0
     Generated by new atomic code, or converted to UPF format
     Using radial grid of  873 points,  6 beta functions with: 
                l(1) =   0
                l(2) =   0
                l(3) =   1
                l(4) =   1
                l(5) =   2
                l(6) =   2
     Q(r) pseudized with  8 coefficients,  rinner =    1.400   1.400   1.400
                                                       1.400   1.400

     atomic species   valence    mass     pseudopotential
     Ge               14.00    72.63000     Ge( 1.00)

     48 Sym. Ops., with inversion, found (24 have fractional translation)



   Cartesian axes

     site n.     atom                  positions (alat units)
         1        Ge     tau(   1) = (   0.0000000   0.0000000   0.0000000  )
         2        Ge     tau(   2) = (   0.3535534   0.3535534   0.3535534  )

     number of k points=    47
                       cart. coord. in units 2pi/alat
        k(    1) = (   0.0000000   0.0000000   0.0000000), wk =   0.0020000
        k(    2) = (   0.0707107   0.0707107  -0.0707107), wk =   0.0160000
        k(    3) = (   0.1414214   0.1414214  -0.1414214), wk =   0.0160000
        k(    4) = (   0.2121320   0.2121320  -0.2121320), wk =   0.0160000
        k(    5) = (   0.2828427   0.2828427  -0.2828427), wk =   0.0160000
        k(    6) = (  -0.3535534  -0.3535534   0.3535534), wk =   0.0080000
        k(    7) = (   0.1414214   0.0000000   0.0000000), wk =   0.0120000
        k(    8) = (   0.2121320   0.0707107  -0.0707107), wk =   0.0480000
        k(    9) = (   0.2828427   0.1414214  -0.1414214), wk =   0.0480000
        k(   10) = (   0.3535534   0.2121320  -0.2121320), wk =   0.0480000
        k(   11) = (  -0.2828427  -0.4242641   0.4242641), wk =   0.0480000
        k(   12) = (  -0.2121320  -0.3535534   0.3535534), wk =   0.0480000
        k(   13) = (  -0.1414214  -0.2828427   0.2828427), wk =   0.0480000
        k(   14) = (  -0.0707107  -0.2121320   0.2121320), wk =   0.0480000
        k(   15) = (   0.0000000  -0.1414214   0.1414214), wk =   0.0240000
        k(   16) = (   0.2828427   0.0000000   0.0000000), wk =   0.0120000
        k(   17) = (   0.3535534   0.0707107  -0.0707107), wk =   0.0480000
        k(   18) = (   0.4242641   0.1414214  -0.1414214), wk =   0.0480000
        k(   19) = (  -0.2121320  -0.4949747   0.4949747), wk =   0.0480000
        k(   20) = (  -0.1414214  -0.4242641   0.4242641), wk =   0.0480000
        k(   21) = (  -0.0707107  -0.3535534   0.3535534), wk =   0.0480000
        k(   22) = (   0.0000000  -0.2828427   0.2828427), wk =   0.0240000
        k(   23) = (   0.4242641   0.0000000   0.0000000), wk =   0.0120000
        k(   24) = (   0.4949747   0.0707107  -0.0707107), wk =   0.0480000
        k(   25) = (  -0.1414214  -0.5656854   0.5656854), wk =   0.0480000
        k(   26) = (  -0.0707107  -0.4949747   0.4949747), wk =   0.0480000
        k(   27) = (  -0.0000000  -0.4242641   0.4242641), wk =   0.0240000
        k(   28) = (   0.5656854   0.0000000   0.0000000), wk =   0.0120000
        k(   29) = (  -0.0707107  -0.6363961   0.6363961), wk =   0.0480000
        k(   30) = (   0.0000000  -0.5656854   0.5656854), wk =   0.0240000
        k(   31) = (  -0.7071068   0.0000000   0.0000000), wk =   0.0060000
        k(   32) = (   0.2828427   0.1414214   0.0000000), wk =   0.0480000
        k(   33) = (   0.3535534   0.2121320  -0.0707107), wk =   0.0960000
        k(   34) = (  -0.2828427  -0.4242641   0.5656854), wk =   0.0960000
        k(   35) = (  -0.2121320  -0.3535534   0.4949747), wk =   0.0480000
        k(   36) = (   0.4242641   0.1414214  -0.0000000), wk =   0.0480000
        k(   37) = (  -0.2121320  -0.4949747   0.6363961), wk =   0.0960000
        k(   38) = (  -0.1414214  -0.4242641   0.5656854), wk =   0.0960000
        k(   39) = (  -0.0707107  -0.3535534   0.4949747), wk =   0.0960000
        k(   40) = (   0.0000000  -0.2828427   0.4242641), wk =   0.0480000
        k(   41) = (  -0.1414214  -0.5656854   0.7071068), wk =   0.0480000
        k(   42) = (  -0.0707107  -0.4949747   0.6363961), wk =   0.0960000
        k(   43) = (  -0.0000000  -0.4242641   0.5656854), wk =   0.0480000
        k(   44) = (  -0.7071068   0.1414214   0.0000000), wk =   0.0240000
        k(   45) = (  -0.1414214  -0.4242641   0.7071068), wk =   0.0480000
        k(   46) = (  -0.0707107  -0.3535534   0.6363961), wk =   0.0480000
        k(   47) = (  -0.7071068   0.2828427   0.0000000), wk =   0.0240000

     Dense  grid:     9257 G-vectors     FFT dimensions: (  32,  32,  32)

     Estimated max dynamical RAM per process >      47.88 MB

     Check: negative core charge=   -0.000014

     Initial potential from superposition of free atoms

     starting charge      27.9986, renormalised to      28.0000
     Starting wfcs are   18 randomized atomic wfcs

     total cpu time spent up to now is        1.0 secs

     Self-consistent Calculation

     iteration #  1     ecut=    35.00 Ry     beta= 0.50
     Davidson diagonalization with overlap
     ethr =  1.00E-02,  avg # of iterations =  1.6

     Threshold (ethr) on eigenvalues was too large:
     Diagonalizing with lowered threshold

     Davidson diagonalization with overlap
     ethr =  1.01E-04,  avg # of iterations =  2.0

     total cpu time spent up to now is        2.8 secs

     total energy              =    -426.16402004 Ry
     estimated scf accuracy    <       0.03037551 Ry

     iteration #  2     ecut=    35.00 Ry     beta= 0.50
     Davidson diagonalization with overlap
     ethr =  1.08E-04,  avg # of iterations =  1.0

     total cpu time spent up to now is        3.6 secs

     total energy              =    -426.16284641 Ry
     estimated scf accuracy    <       0.00553123 Ry

     iteration #  3     ecut=    35.00 Ry     beta= 0.50
     Davidson diagonalization with overlap
     ethr =  1.98E-05,  avg # of iterations =  2.0

     total cpu time spent up to now is        4.5 secs

     total energy              =    -426.16323469 Ry
     estimated scf accuracy    <       0.00006000 Ry

     iteration #  4     ecut=    35.00 Ry     beta= 0.50
     Davidson diagonalization with overlap
     ethr =  2.14E-07,  avg # of iterations =  3.9

     total cpu time spent up to now is        5.7 secs

     total energy              =    -426.16325609 Ry
     estimated scf accuracy    <       0.00000406 Ry

     iteration #  5     ecut=    35.00 Ry     beta= 0.50
     Davidson diagonalization with overlap
     ethr =  1.45E-08,  avg # of iterations =  3.0

     total cpu time spent up to now is        6.8 secs

     End of self-consistent calculation

          k = 0.0000 0.0000 0.0000 (  1139 PWs)   bands (ev):

   -17.6026 -17.6026 -17.6026 -17.5702 -17.5702 -17.3973 -17.3973 -17.3973
   -17.3905 -17.3905  -5.0661   6.3649   7.2105   7.2105

          k = 0.0707 0.0707-0.0707 (  1179 PWs)   bands (ev):

   -17.6078 -17.6078 -17.6014 -17.5652 -17.5652 -17.4067 -17.4067 -17.3999
   -17.3834 -17.3834  -4.9528   5.0598   7.0026   7.0026

          k = 0.1414 0.1414-0.1414 (  1167 PWs)   bands (ev):

   -17.6149 -17.6149 -17.5977 -17.5540 -17.5540 -17.4168 -17.4168 -17.4042
   -17.3752 -17.3752  -4.6197   3.3276   6.5981   6.5981

          k = 0.2121 0.2121-0.2121 (  1155 PWs)   bands (ev):

   -17.6198 -17.6198 -17.5932 -17.5443 -17.5443 -17.4243 -17.4243 -17.4094
   -17.3697 -17.3697  -4.0977   1.7207   6.2341   6.2341

          k = 0.2828 0.2828-0.2828 (  1149 PWs)   bands (ev):

   -17.6222 -17.6222 -17.5896 -17.5389 -17.5389 -17.4279 -17.4279 -17.4138
   -17.3670 -17.3670  -3.4919   0.4394   5.9981   5.9981

          k =-0.3536-0.3536 0.3536 (  1158 PWs)   bands (ev):

   -17.6233 -17.6233 -17.5883 -17.5375 -17.5375 -17.4293 -17.4293 -17.4160
   -17.3659 -17.3659  -3.1578  -0.1233   5.9174   5.9174

          k = 0.1414 0.0000 0.0000 (  1163 PWs)   bands (ev):

   -17.6070 -17.6061 -17.6061 -17.5661 -17.5586 -17.4192 -17.3952 -17.3938
   -17.3938 -17.3791  -4.9145   4.9476   6.6463   6.6463

          k = 0.2121 0.0707-0.0707 (  1160 PWs)   bands (ev):

   -17.6158 -17.6112 -17.6017 -17.5583 -17.5462 -17.4329 -17.4059 -17.3944
   -17.3834 -17.3728  -4.6531   3.6663   6.1955   6.2076

          k = 0.2828 0.1414-0.1414 (  1147 PWs)   bands (ev):

   -17.6236 -17.6169 -17.5939 -17.5480 -17.5351 -17.4421 -17.4160 -17.4017
   -17.3748 -17.3654  -4.1883   2.1433   5.6774   5.8688

          k = 0.3536 0.2121-0.2121 (  1150 PWs)   bands (ev):

   -17.6287 -17.6214 -17.5858 -17.5396 -17.5301 -17.4442 -17.4249 -17.4117
   -17.3689 -17.3603  -3.5882   0.7857   5.2462   5.6948

          k =-0.2828-0.4243 0.4243 (  1158 PWs)   bands (ev):

   -17.6306 -17.6245 -17.5801 -17.5333 -17.5316 -17.4390 -17.4323 -17.4205
   -17.3648 -17.3589  -3.0978  -0.0617   4.9741   5.7028

          k =-0.2121-0.3536 0.3536 (  1148 PWs)   bands (ev):

   -17.6290 -17.6257 -17.5795 -17.5365 -17.5302 -17.4372 -17.4291 -17.4234
   -17.3626 -17.3611  -3.2204   0.1347   4.8896   5.8860

          k =-0.1414-0.2828 0.2828 (  1144 PWs)   bands (ev):

   -17.6248 -17.6244 -17.5846 -17.5434 -17.5322 -17.4372 -17.4257 -17.4132
   -17.3670 -17.3629  -3.7974   1.2081   5.0148   6.2173

          k =-0.0707-0.2121 0.2121 (  1149 PWs)   bands (ev):

   -17.6213 -17.6173 -17.5928 -17.5514 -17.5413 -17.4309 -17.4211 -17.4001
   -17.3764 -17.3665  -4.3654   2.6362   5.3824   6.6348

          k = 0.0000-0.1414 0.1414 (  1165 PWs)   bands (ev):

   -17.6149 -17.6095 -17.6001 -17.5604 -17.5544 -17.4195 -17.4132 -17.3902
   -17.3889 -17.3734  -4.7655   4.0754   6.0723   6.9879

          k = 0.2828 0.0000 0.0000 (  1158 PWs)   bands (ev):

   -17.6137 -17.6137 -17.6091 -17.5528 -17.5314 -17.4520 -17.4076 -17.3821
   -17.3821 -17.3763  -4.4631   3.2212   5.7472   5.7472

          k = 0.3536 0.0707-0.0707 (  1146 PWs)   bands (ev):

   -17.6233 -17.6185 -17.5994 -17.5429 -17.5174 -17.4664 -17.4176 -17.3899
   -17.3741 -17.3667  -4.0618   2.1564   5.1732   5.3943

          k = 0.4243 0.1414-0.1414 (  1156 PWs)   bands (ev):

   -17.6329 -17.6235 -17.5855 -17.5323 -17.5097 -17.4732 -17.4293 -17.4057
   -17.3669 -17.3564  -3.4918   0.9648   4.5082   5.2191

          k =-0.2121-0.4950 0.4950 (  1143 PWs)   bands (ev):

   -17.6387 -17.6271 -17.5722 -17.5224 -17.5118 -17.4682 -17.4404 -17.4199
   -17.3614 -17.3498  -2.9096   0.0100   4.0095   5.2430

          k =-0.1414-0.4243 0.4243 (  1151 PWs)   bands (ev):

   -17.6398 -17.6293 -17.5652 -17.5225 -17.5160 -17.4545 -17.4497 -17.4287
   -17.3583 -17.3493  -2.8016  -0.1431   3.7612   5.4602

          k =-0.0707-0.3536 0.3536 (  1147 PWs)   bands (ev):

   -17.6355 -17.6295 -17.5680 -17.5354 -17.5166 -17.4517 -17.4358 -17.4291
   -17.3577 -17.3548  -3.3116   0.6395   3.8259   5.8374

          k = 0.0000-0.2828 0.2828 (  1151 PWs)   bands (ev):

   -17.6270 -17.6268 -17.5802 -17.5449 -17.5266 -17.4440 -17.4282 -17.4129
   -17.3656 -17.3605  -3.9089   1.7068   4.3235   6.2918

          k = 0.4243 0.0000 0.0000 (  1146 PWs)   bands (ev):

   -17.6222 -17.6222 -17.6016 -17.5328 -17.4989 -17.4882 -17.4265 -17.3847
   -17.3684 -17.3684  -3.7228   1.5482   5.0098   5.0098

          k = 0.4950 0.0707-0.0707 (  1149 PWs)   bands (ev):

   -17.6309 -17.6263 -17.5880 -17.5203 -17.5024 -17.4849 -17.4390 -17.4002
   -17.3626 -17.3579  -3.1968   0.6559   4.4374   4.8002

          k =-0.1414-0.5657 0.5657 (  1146 PWs)   bands (ev):

   -17.6401 -17.6296 -17.5696 -17.5084 -17.5055 -17.4805 -17.4522 -17.4194
   -17.3579 -17.3477  -2.5769  -0.2019   3.7091   4.7953

          k =-0.0707-0.4950 0.4950 (  1140 PWs)   bands (ev):

   -17.6449 -17.6315 -17.5587 -17.4992 -17.4965 -17.4874 -17.4633 -17.4306
   -17.3552 -17.3430  -2.2718  -0.5628   3.2373   4.9945

          k =-0.0000-0.4243 0.4243 (  1145 PWs)   bands (ev):

   -17.6434 -17.6316 -17.5582 -17.5169 -17.5024 -17.4637 -17.4634 -17.4319
   -17.3551 -17.3454  -2.7093  -0.0479   3.2228   5.3685

          k = 0.5657 0.0000 0.0000 (  1154 PWs)   bands (ev):

   -17.6292 -17.6292 -17.5845 -17.5251 -17.5071 -17.4646 -17.4514 -17.4043
   -17.3584 -17.3584  -2.7139  -0.0307   4.5444   4.5444

          k =-0.0707-0.6364 0.6364 (  1148 PWs)   bands (ev):

   -17.6355 -17.6313 -17.5672 -17.5363 -17.4932 -17.4653 -17.4525 -17.4217
   -17.3555 -17.3518  -2.0911  -0.7779   4.0604   4.4919

          k = 0.0000-0.5657 0.5657 (  1144 PWs)   bands (ev):

   -17.6429 -17.6320 -17.5567 -17.5233 -17.4853 -17.4751 -17.4637 -17.4322
   -17.3544 -17.3447  -1.7461  -1.1125   3.4298   4.6494

          k =-0.7071 0.0000 0.0000 (  1162 PWs)   bands (ev):

   -17.6320 -17.6320 -17.5582 -17.5582 -17.4794 -17.4794 -17.4319 -17.4319
   -17.3548 -17.3548  -1.4685  -1.4685   4.3861   4.3861

          k = 0.2828 0.1414 0.0000 (  1150 PWs)   bands (ev):

   -17.6215 -17.6176 -17.5959 -17.5506 -17.5326 -17.4472 -17.4138 -17.3958
   -17.3769 -17.3668  -4.3227   2.6977   5.1816   6.1345

          k = 0.3536 0.2121-0.0707 (  1150 PWs)   bands (ev):

   -17.6287 -17.6245 -17.5840 -17.5412 -17.5215 -17.4566 -17.4230 -17.4098
   -17.3666 -17.3601  -3.8031   1.4775   4.5307   5.7935

          k =-0.2828-0.4243 0.5657 (  1149 PWs)   bands (ev):

   -17.6351 -17.6277 -17.5729 -17.5323 -17.5175 -17.4574 -17.4325 -17.4234
   -17.3611 -17.3541  -3.1935   0.3532   4.2045   5.4881

          k =-0.2121-0.3536 0.4950 (  1156 PWs)   bands (ev):

   -17.6375 -17.6289 -17.5685 -17.5261 -17.5196 -17.4533 -17.4414 -17.4275
   -17.3597 -17.3516  -2.8493  -0.1758   4.1071   5.3721

          k = 0.4243 0.1414-0.0000 (  1144 PWs)   bands (ev):

   -17.6277 -17.6267 -17.5887 -17.5322 -17.5032 -17.4813 -17.4281 -17.4006
   -17.3639 -17.3611  -3.6002   1.2826   4.4884   5.1388

          k =-0.2121-0.4950 0.6364 (  1151 PWs)   bands (ev):

   -17.6371 -17.6307 -17.5717 -17.5214 -17.4962 -17.4868 -17.4408 -17.4189
   -17.3577 -17.3516  -2.9974   0.3290   3.8910   4.8612

          k =-0.1414-0.4243 0.5657 (  1150 PWs)   bands (ev):

   -17.6427 -17.6326 -17.5589 -17.5127 -17.4985 -17.4814 -17.4533 -17.4313
   -17.3548 -17.3457  -2.4902  -0.3533   3.5009   4.8118

          k =-0.0707-0.3536 0.4950 (  1152 PWs)   bands (ev):

   -17.6424 -17.6331 -17.5574 -17.5182 -17.5006 -17.4742 -17.4527 -17.4336
   -17.3544 -17.3463  -2.6507  -0.1458   3.4015   5.0203

          k = 0.0000-0.2828 0.4243 (  1149 PWs)   bands (ev):

   -17.6361 -17.6312 -17.5677 -17.5317 -17.5076 -17.4682 -17.4330 -17.4280
   -17.3563 -17.3540  -3.2470   0.6640   3.7088   5.4099

          k =-0.1414-0.5657 0.7071 (  1162 PWs)   bands (ev):

   -17.6338 -17.6336 -17.5728 -17.5164 -17.5078 -17.4716 -17.4522 -17.4163
   -17.3545 -17.3544  -2.6254  -0.1160   4.1067   4.4264

          k =-0.0707-0.4950 0.6364 (  1149 PWs)   bands (ev):

   -17.6419 -17.6351 -17.5536 -17.5175 -17.4956 -17.4689 -17.4658 -17.4348
   -17.3520 -17.3456  -2.0214  -0.7974   3.5418   4.3402

          k =-0.0000-0.4243 0.5657 (  1149 PWs)   bands (ev):

   -17.6454 -17.6351 -17.5499 -17.4978 -17.4970 -17.4830 -17.4708 -17.4380
   -17.3519 -17.3424  -2.0660  -0.7363   3.1972   4.5822

          k =-0.7071 0.1414 0.0000 (  1148 PWs)   bands (ev):

   -17.6360 -17.6360 -17.5476 -17.5476 -17.4798 -17.4798 -17.4410 -17.4410
   -17.3507 -17.3507  -1.4427  -1.4427   4.0793   4.0793

          k =-0.1414-0.4243 0.7071 (  1151 PWs)   bands (ev):

   -17.6416 -17.6372 -17.5520 -17.5092 -17.4993 -17.4820 -17.4570 -17.4364
   -17.3502 -17.3465  -2.3856  -0.3699   3.4742   4.3748

          k =-0.0707-0.3536 0.6364 (  1148 PWs)   bands (ev):

   -17.6442 -17.6385 -17.5417 -17.5053 -17.4970 -17.4794 -17.4680 -17.4444
   -17.3487 -17.3434  -1.9742  -0.8146   3.3515   4.1581

          k =-0.7071 0.2828 0.0000 (  1154 PWs)   bands (ev):

   -17.6417 -17.6417 -17.5285 -17.5285 -17.4832 -17.4832 -17.4564 -17.4564
   -17.3459 -17.3459  -1.3995  -1.3995   3.6894   3.6894

     highest occupied level (ev):     7.2105

!    total energy              =    -426.16325700 Ry
     estimated scf accuracy    <       0.00000005 Ry

     The total energy is the sum of the following terms:
     one-electron contribution =    -287.15357494 Ry
     hartree contribution      =     168.10126360 Ry
     xc contribution           =    -114.45168016 Ry
     ewald contribution        =    -192.65926549 Ry

     convergence has been achieved in   5 iterations

     Forces acting on atoms (cartesian axes, Ry/au):

     atom    1 type  1   force =     0.00000000    0.00000000    0.00000000
     atom    2 type  1   force =    -0.00000000    0.00000000   -0.00000000

     Total force =     0.000000     Total SCF correction =     0.000000


     Computing stress (Cartesian axis) and pressure

          total   stress  (Ry/bohr**3)                   (kbar)     P=      -65.04
  -0.00044212   0.00000000   0.00000000          -65.04        0.00        0.00
   0.00000000  -0.00044212   0.00000000            0.00      -65.04        0.00
   0.00000000   0.00000000  -0.00044212            0.00        0.00      -65.04

     Message from routine punch:
     Nothing written, as per user request (disk_io='none')

     init_run     :      0.89s CPU      0.93s WALL (       1 calls)
     electrons    :      5.70s CPU      5.79s WALL (       1 calls)
     forces       :      0.08s CPU      0.08s WALL (       1 calls)
     stress       :      0.54s CPU      0.55s WALL (       1 calls)

     Called by init_run:
     wfcinit      :      0.54s CPU      0.56s WALL (       1 calls)
     potinit      :      0.01s CPU      0.01s WALL (       1 calls)
     hinit0       :      0.31s CPU      0.32s WALL (       1 calls)

     Called by electrons:
     c_bands      :      4.63s CPU      4.70s WALL (       6 calls)
     sum_band     :      0.94s CPU      0.96s WALL (       6 calls)
     v_of_rho     :      0.01s CPU      0.01s WALL (       6 calls)
     newd         :      0.13s CPU      0.14s WALL (       6 calls)
     mix_rho      :      0.00s CPU      0.00s WALL (       6 calls)

     Called by c_bands:
     init_us_2    :      0.19s CPU      0.19s WALL (     705 calls)
     cegterg      :      4.18s CPU      4.24s WALL (     282 calls)

     Called by *egterg:
     cdiaghg      :      0.15s CPU      0.15s WALL (     868 calls)
     h_psi        :      3.99s CPU      4.07s WALL (     962 calls)
     s_psi        :      0.10s CPU      0.10s WALL (     962 calls)
     g_psi        :      0.03s CPU      0.03s WALL (     633 calls)

     Called by h_psi:
     h_psi:calbec :      0.12s CPU      0.12s WALL (     962 calls)
     vloc_psi     :      3.74s CPU      3.81s WALL (     962 calls)
     add_vuspsi   :      0.10s CPU      0.11s WALL (     962 calls)

     General routines
     calbec       :      0.26s CPU      0.26s WALL (    2043 calls)
     fft          :      0.14s CPU      0.14s WALL (      33 calls)
     ffts         :      0.00s CPU      0.00s WALL (       6 calls)
     fftw         :      3.78s CPU      3.85s WALL (   24836 calls)

     Parallel routines

     PWSCF        :      7.30s CPU      7.45s WALL


   This run was terminated on:  21:48:24   8Oct2025            

=------------------------------------------------------------------------------=
   JOB DONE.
=------------------------------------------------------------------------------=
