
     Program PWSCF v.7.4.1 starts on 21Oct2025 at  0:42:53 

     This program is part of the open-source Quantum ESPRESSO suite
     for quantum simulation of materials; please cite
         "P. Giannozzi et al., J. Phys.:Condens. Matter 21 395502 (2009);
         "P. Giannozzi et al., J. Phys.:Condens. Matter 29 465901 (2017);
         "P. Giannozzi et al., J. Chem. Phys. 152 154105 (2020);
          URL http://www.quantum-espresso.org", 
     in publications or presentations arising from this work. More details at
     http://www.quantum-espresso.org/quote

     Parallel version (MPI), running on     2 processors

     MPI processes distributed on     1 nodes
     165 MiB available memory on the printing compute node when the environment starts

     Waiting for input...
     Reading input from standard input
Warning: card &CELL ignored
Warning: card / ignored

     Current dimensions of program PWSCF are:
     Max number of different atomic species (ntypx) = 10
     Max number of k-points (npk) =  40000
     Max angular momentum in pseudopotentials (lmaxx) =  4
     file Fe.pbe-nd-rrkjus.UPF: wavefunction(s)  4S renormalized
     Message from routine setup:
     using ibrav=0 with symmetry is DISCOURAGED, use correct ibrav instead

     R & G space division:  proc/nbgrp/npool/nimage =       2
     Subspace diagonalization in iterative solution of the eigenvalue problem:
     a serial algorithm will be used


     Parallelization info
     --------------------
     sticks:   dense  smooth     PW     G-vecs:    dense   smooth      PW
     Min         157      64     33                 1779      467     184
     Max         158      65     34                 1780      468     185
     Sum         315     129     67                 3559      935     369

     Using Slab Decomposition



     bravais-lattice index     =            0
     lattice parameter (alat)  =       3.7641  a.u.
     unit-cell volume          =      41.0535 (a.u.)^3
     number of atoms/cell      =            1
     number of atomic types    =            1
     number of electrons       =         8.00
     number of Kohn-Sham states=            8
     kinetic-energy cutoff     =      30.0000  Ry
     charge density cutoff     =     300.0000  Ry
     scf convergence threshold =      1.0E-07
     mixing beta               =       0.5000
     number of iterations used =            8  plain     mixing
     Exchange-correlation=  SLA  PW   PBE  PBE
                           (   1   4   3   4   0   0   0)

     celldm(1)=   3.764067  celldm(2)=   0.000000  celldm(3)=   0.000000
     celldm(4)=   0.000000  celldm(5)=   0.000000  celldm(6)=   0.000000

     crystal axes: (cart. coord. in units of alat)
               a(1) = (  -0.577350   0.577350   0.577350 )  
               a(2) = (   0.577350  -0.577350   0.577350 )  
               a(3) = (   0.577350   0.577350  -0.577350 )  

     reciprocal axes: (cart. coord. in units 2 pi/alat)
               b(1) = (  0.000000  0.866025  0.866025 )  
               b(2) = (  0.866025  0.000000  0.866025 )  
               b(3) = (  0.866025  0.866025  0.000000 )  


     PseudoPot. # 1 for Fe read from file:
     /home/bond/Software/QE/qe-7.4.1/pseudo/Fe.pbe-nd-rrkjus.UPF
     MD5 check sum: 398036227a04b607635f6f5e8dfd8242
     Pseudo is Ultrasoft + core correction, Zval =  8.0
     Generated by new atomic code, or converted to UPF format
     Using radial grid of  957 points,  6 beta functions with: 
                l(1) =   0
                l(2) =   0
                l(3) =   1
                l(4) =   1
                l(5) =   2
                l(6) =   2
     Q(r) pseudized with 0 coefficients 


     atomic species   valence    mass     pseudopotential
     Fe                8.00    55.84500     Fe( 1.00)

     Starting magnetic structure 
     atomic species   magnetization
     Fe              0.700

     48 Sym. Ops., with inversion, found



   Cartesian axes

     site n.     atom                  positions (alat units)
         1        Fe     tau(   1) = (   0.0000000   0.0000000   0.0000000  )

     number of k points=   104  Methfessel-Paxton smearing, width (Ry)=  0.0200

     Number of k-points >= 100: set verbosity='high' to print them.

     Dense  grid:     3559 G-vectors     FFT dimensions: (  24,  24,  24)

     Smooth grid:      935 G-vectors     FFT dimensions: (  15,  15,  15)

     Estimated max dynamical RAM per process >      10.37 MB

     Estimated total dynamical RAM >      20.74 MB
     Generating pointlists ...
     new r_m :   0.4125 (alat units)  1.5527 (a.u.) for type    1

     Initial potential from superposition of free atoms

     starting charge       7.9994, renormalised to       8.0000
     Starting wfcs are    6 randomized atomic wfcs +    2 random wfcs

     total cpu time spent up to now is        0.8 secs

     Self-consistent Calculation

     iteration #  1     ecut=    30.00 Ry     beta= 0.50
     Davidson diagonalization with overlap
     ethr =  1.00E-02,  avg # of iterations =  4.8

     total cpu time spent up to now is        1.7 secs

     total energy              =     -55.35740203 Ry
     estimated scf accuracy    <       0.21795802 Ry

     total magnetization       =     2.25 Bohr mag/cell
     absolute magnetization    =     2.25 Bohr mag/cell

     iteration #  2     ecut=    30.00 Ry     beta= 0.50
     Davidson diagonalization with overlap
     ethr =  2.72E-03,  avg # of iterations =  1.1

     total cpu time spent up to now is        2.1 secs

     total energy              =     -55.43215668 Ry
     estimated scf accuracy    <       0.04373666 Ry

     total magnetization       =     2.04 Bohr mag/cell
     absolute magnetization    =     2.04 Bohr mag/cell

     iteration #  3     ecut=    30.00 Ry     beta= 0.50
     Davidson diagonalization with overlap
     ethr =  5.47E-04,  avg # of iterations =  1.1

     total cpu time spent up to now is        2.5 secs

     total energy              =     -55.45414516 Ry
     estimated scf accuracy    <       0.01521182 Ry

     total magnetization       =     1.57 Bohr mag/cell
     absolute magnetization    =     1.58 Bohr mag/cell

     iteration #  4     ecut=    30.00 Ry     beta= 0.50
     Davidson diagonalization with overlap
     ethr =  1.90E-04,  avg # of iterations =  2.0

     total cpu time spent up to now is        2.9 secs

     total energy              =     -55.46686007 Ry
     estimated scf accuracy    <       0.00103960 Ry

     total magnetization       =     1.07 Bohr mag/cell
     absolute magnetization    =     1.12 Bohr mag/cell

     iteration #  5     ecut=    30.00 Ry     beta= 0.50
     Davidson diagonalization with overlap
     c_bands:  1 eigenvalues not converged
     ethr =  1.30E-05,  avg # of iterations =  5.7

     total cpu time spent up to now is        3.6 secs

     total energy              =     -55.46771357 Ry
     estimated scf accuracy    <       0.00035884 Ry

     total magnetization       =     1.04 Bohr mag/cell
     absolute magnetization    =     1.08 Bohr mag/cell

     iteration #  6     ecut=    30.00 Ry     beta= 0.50
     Davidson diagonalization with overlap
     ethr =  4.49E-06,  avg # of iterations =  2.1

     total cpu time spent up to now is        4.1 secs

     total energy              =     -55.46790260 Ry
     estimated scf accuracy    <       0.00011604 Ry

     total magnetization       =     1.02 Bohr mag/cell
     absolute magnetization    =     1.04 Bohr mag/cell

     iteration #  7     ecut=    30.00 Ry     beta= 0.50
     Davidson diagonalization with overlap
     ethr =  1.45E-06,  avg # of iterations =  2.2

     total cpu time spent up to now is        4.6 secs

     total energy              =     -55.46807636 Ry
     estimated scf accuracy    <       0.00002417 Ry

     total magnetization       =     0.94 Bohr mag/cell
     absolute magnetization    =     0.96 Bohr mag/cell

     iteration #  8     ecut=    30.00 Ry     beta= 0.50
     Davidson diagonalization with overlap
     ethr =  3.02E-07,  avg # of iterations =  2.3

     total cpu time spent up to now is        5.0 secs

     total energy              =     -55.46819314 Ry
     estimated scf accuracy    <       0.00002045 Ry

     total magnetization       =     0.88 Bohr mag/cell
     absolute magnetization    =     0.90 Bohr mag/cell

     iteration #  9     ecut=    30.00 Ry     beta= 0.50
     Davidson diagonalization with overlap
     ethr =  2.56E-07,  avg # of iterations =  1.2

     total cpu time spent up to now is        5.5 secs

     total energy              =     -55.46809986 Ry
     estimated scf accuracy    <       0.00001426 Ry

     total magnetization       =     0.86 Bohr mag/cell
     absolute magnetization    =     0.88 Bohr mag/cell

     iteration # 10     ecut=    30.00 Ry     beta= 0.50
     Davidson diagonalization with overlap
     ethr =  1.78E-07,  avg # of iterations =  2.1

     total cpu time spent up to now is        5.9 secs

     total energy              =     -55.46825643 Ry
     estimated scf accuracy    <       0.00000526 Ry

     total magnetization       =     0.78 Bohr mag/cell
     absolute magnetization    =     0.80 Bohr mag/cell

     iteration # 11     ecut=    30.00 Ry     beta= 0.50
     Davidson diagonalization with overlap
     ethr =  6.58E-08,  avg # of iterations =  1.0

     total cpu time spent up to now is        6.3 secs

     total energy              =     -55.46825961 Ry
     estimated scf accuracy    <       0.00000593 Ry

     total magnetization       =     0.79 Bohr mag/cell
     absolute magnetization    =     0.81 Bohr mag/cell

     iteration # 12     ecut=    30.00 Ry     beta= 0.50
     Davidson diagonalization with overlap
     ethr =  6.58E-08,  avg # of iterations =  1.1

     total cpu time spent up to now is        6.7 secs

     total energy              =     -55.46821284 Ry
     estimated scf accuracy    <       0.00000419 Ry

     total magnetization       =     0.77 Bohr mag/cell
     absolute magnetization    =     0.79 Bohr mag/cell

     iteration # 13     ecut=    30.00 Ry     beta= 0.50
     Davidson diagonalization with overlap
     ethr =  5.23E-08,  avg # of iterations =  2.2

     total cpu time spent up to now is        7.2 secs

     total energy              =     -55.46828249 Ry
     estimated scf accuracy    <       0.00000133 Ry

     total magnetization       =     0.72 Bohr mag/cell
     absolute magnetization    =     0.74 Bohr mag/cell

     iteration # 14     ecut=    30.00 Ry     beta= 0.50
     Davidson diagonalization with overlap
     ethr =  1.67E-08,  avg # of iterations =  1.0

     total cpu time spent up to now is        7.6 secs

     total energy              =     -55.46828177 Ry
     estimated scf accuracy    <       0.00000143 Ry

     total magnetization       =     0.73 Bohr mag/cell
     absolute magnetization    =     0.74 Bohr mag/cell

     iteration # 15     ecut=    30.00 Ry     beta= 0.50
     Davidson diagonalization with overlap
     ethr =  1.67E-08,  avg # of iterations =  1.0

     total cpu time spent up to now is        8.0 secs

     total energy              =     -55.46812675 Ry
     estimated scf accuracy    <       0.00000151 Ry

     total magnetization       =     0.73 Bohr mag/cell
     absolute magnetization    =     0.75 Bohr mag/cell

     iteration # 16     ecut=    30.00 Ry     beta= 0.50
     Davidson diagonalization with overlap
     ethr =  1.67E-08,  avg # of iterations =  3.2

     total cpu time spent up to now is        8.6 secs

     total energy              =     -55.46828807 Ry
     estimated scf accuracy    <       0.00000018 Ry

     total magnetization       =     0.65 Bohr mag/cell
     absolute magnetization    =     0.67 Bohr mag/cell

     iteration # 17     ecut=    30.00 Ry     beta= 0.50
     Davidson diagonalization with overlap
     ethr =  2.24E-09,  avg # of iterations =  3.7

     Magnetic moment per site  (integrated on atomic sphere of radius R)
     atom   1 (R=0.413)  charge=  6.0793  magn=  0.6258

     total cpu time spent up to now is        9.2 secs

     End of self-consistent calculation

     Number of k-points >= 100: set verbosity='high' to print the bands.

     the Fermi energy is    28.6898 ev

!    total energy              =     -55.46829864 Ry
     estimated scf accuracy    <       0.00000009 Ry
     smearing contrib. (-TS)   =      -0.00022439 Ry
     internal energy E=F+TS    =     -55.46807425 Ry

     The total energy is F=E-TS. E is the sum of the following terms:
     one-electron contribution =      21.53989790 Ry
     hartree contribution      =       3.70256622 Ry
     xc contribution           =     -27.12307662 Ry
     ewald contribution        =     -53.58746175 Ry

     total magnetization       =     0.63 Bohr mag/cell
     absolute magnetization    =     0.65 Bohr mag/cell

     convergence has been achieved in  17 iterations

     Forces acting on atoms (cartesian axes, Ry/au):

     atom    1 type  1   force =     0.00000000    0.00000000    0.00000000

     Total force =     0.000000     Total SCF correction =     0.000000


     Computing stress (Cartesian axis) and pressure

          total   stress  (Ry/bohr**3)                   (kbar)     P=     4597.58
   0.03125370  -0.00000000  -0.00000000         4597.58       -0.00       -0.00
  -0.00000000   0.03125370  -0.00000000           -0.00     4597.58       -0.00
  -0.00000000  -0.00000000   0.03125370           -0.00       -0.00     4597.58

     Message from routine punch:
     Nothing written, as per user request (disk_io='none')

     init_run     :      0.60s CPU      0.65s WALL (       1 calls)
     electrons    :      7.34s CPU      8.39s WALL (       1 calls)
     forces       :      0.04s CPU      0.04s WALL (       1 calls)
     stress       :      0.20s CPU      0.21s WALL (       1 calls)

     Called by init_run:
     wfcinit      :      0.17s CPU      0.20s WALL (       1 calls)
     potinit      :      0.05s CPU      0.05s WALL (       1 calls)
     hinit0       :      0.37s CPU      0.37s WALL (       1 calls)

     Called by electrons:
     c_bands      :      5.96s CPU      6.85s WALL (      17 calls)
     sum_band     :      1.07s CPU      1.21s WALL (      17 calls)
     v_of_rho     :      0.18s CPU      0.19s WALL (      18 calls)
     newd         :      0.13s CPU      0.14s WALL (      18 calls)
     mix_rho      :      0.02s CPU      0.02s WALL (      17 calls)

     Called by c_bands:
     init_us_2    :      0.18s CPU      0.21s WALL (    7696 calls)
     cegterg      :      5.53s CPU      6.35s WALL (    3536 calls)

     Called by *egterg:
     cdiaghg      :      0.96s CPU      1.10s WALL (   11444 calls)
     h_psi        :      3.86s CPU      4.46s WALL (   11652 calls)
     s_psi        :      0.07s CPU      0.08s WALL (   11652 calls)
     g_psi        :      0.02s CPU      0.03s WALL (    7908 calls)

     Called by h_psi:
     h_psi:calbec :      0.24s CPU      0.28s WALL (   11652 calls)
     vloc_psi     :      3.43s CPU      3.96s WALL (   11652 calls)
     add_vuspsi   :      0.08s CPU      0.10s WALL (   11652 calls)

     General routines
     calbec       :      0.31s CPU      0.36s WALL (   18724 calls)
     fft          :      0.24s CPU      0.25s WALL (     488 calls)
     ffts         :      0.02s CPU      0.02s WALL (      70 calls)
     fftw         :      3.17s CPU      3.66s WALL (  167522 calls)
     interpolate  :      0.02s CPU      0.03s WALL (      36 calls)

     Parallel routines

     PWSCF        :      8.34s CPU      9.46s WALL


   This run was terminated on:   0:43: 2  21Oct2025            

=------------------------------------------------------------------------------=
   JOB DONE.
=------------------------------------------------------------------------------=
