LAMMPS (22 Jul 2025 - Update 1)
Reading data file ...
  orthogonal box = (0 0 0) to (8.7451919 8.7451919 18.122523)
  1 by 1 by 1 MPI processor grid
  reading atoms ...
  27 atoms
  read_data CPU = 0.001 seconds
WARNING: No fixes with time integration, atoms won't move
For more information see https://docs.lammps.org/err0028 (../verlet.cpp:60)
Generated 0 of 0 mixed pair_coeff terms from geometric mixing rule
Neighbor list info ...
  update: every = 1 steps, delay = 0 steps, check = yes
  max neighbors/atom: 2000, page size: 100000
  master list distance cutoff = 6.5
  ghost atom cutoff = 6.5
  binsize = 3.25, bins = 3 3 6
  1 neighbor lists, perpetual/occasional/extra = 1 0 0
  (1) pair lj/cut, perpetual
      attributes: half, newton on
      pair build: half/bin/atomonly/newton
      stencil: half/bin/3d
      bin: standard
Setting up Verlet run ...
  Unit style    : metal
  Current step  : 0
  Time step     : 0.001
Per MPI rank memory allocation (min/avg/max) = 3.052 | 3.052 | 3.052 Mbytes
   Step         PotEng           Lx             Ly             Lz           Press           Pxx            Pyy            Pzz      
         0  -55.326694      8.7451919      8.7451919      18.122523      0.32757614    -2799.5021     -2799.5021      5599.987     
Loop time of 1.886e-06 on 1 procs for 0 steps with 27 atoms

159.1% CPU use with 1 MPI tasks x no OpenMP threads

MPI task timing breakdown:
Section |  min time  |  avg time  |  max time  |%varavg| %total
---------------------------------------------------------------
Pair    | 0          | 0          | 0          |   0.0 |  0.00
Neigh   | 0          | 0          | 0          |   0.0 |  0.00
Comm    | 0          | 0          | 0          |   0.0 |  0.00
Output  | 0          | 0          | 0          |   0.0 |  0.00
Modify  | 0          | 0          | 0          |   0.0 |  0.00
Other   |            | 1.886e-06  |            |       |100.00

Nlocal:             27 ave          27 max          27 min
Histogram: 1 0 0 0 0 0 0 0 0 0
Nghost:            150 ave         150 max         150 min
Histogram: 1 0 0 0 0 0 0 0 0 0
Neighs:            459 ave         459 max         459 min
Histogram: 1 0 0 0 0 0 0 0 0 0

Total # of neighbors = 459
Ave neighs/atom = 17
Neighbor list builds = 0
Dangerous builds = 0
Generated 0 of 0 mixed pair_coeff terms from geometric mixing rule
Setting up cg style minimization ...
  Unit style    : metal
  Current step  : 0
WARNING: Energy due to 3 extra global DOFs will be included in minimizer energies
 (../min.cpp:222)
Per MPI rank memory allocation (min/avg/max) = 4.177 | 4.177 | 4.177 Mbytes
   Step         PotEng           Lx             Ly             Lz           Press           Pxx            Pyy            Pzz      
         0  -55.326694      8.7451919      8.7451919      18.122523      0.32757614    -2799.5021     -2799.5021      5599.987     
        16  -55.37819       8.6934874      8.6934874      18.122523      0.0083484415   1.4393833      1.4393833     -2.8537213    
Loop time of 0.000316955 on 1 procs for 16 steps with 27 atoms

100.0% CPU use with 1 MPI tasks x no OpenMP threads

Minimization stats:
  Stopping criterion = energy tolerance
  Energy initial, next-to-last, final = 
     -55.3266941302898  -55.3781896175421   -55.378189619126
  Force two-norm initial, final = 3.4693684 0.0017839419
  Force max component initial, final = 2.4217416 0.0012377933
  Final line search alpha, max atom move = 1 0.0012377933
  Iterations, force evaluations = 16 23

MPI task timing breakdown:
Section |  min time  |  avg time  |  max time  |%varavg| %total
---------------------------------------------------------------
Pair    | 0.00016818 | 0.00016818 | 0.00016818 |   0.0 | 53.06
Neigh   | 0          | 0          | 0          |   0.0 |  0.00
Comm    | 2.0007e-05 | 2.0007e-05 | 2.0007e-05 |   0.0 |  6.31
Output  | 0          | 0          | 0          |   0.0 |  0.00
Modify  | 0          | 0          | 0          |   0.0 |  0.00
Other   |            | 0.0001288  |            |       | 40.63

Nlocal:             27 ave          27 max          27 min
Histogram: 1 0 0 0 0 0 0 0 0 0
Nghost:            150 ave         150 max         150 min
Histogram: 1 0 0 0 0 0 0 0 0 0
Neighs:            459 ave         459 max         459 min
Histogram: 1 0 0 0 0 0 0 0 0 0

Total # of neighbors = 459
Ave neighs/atom = 17
Neighbor list builds = 0
Dangerous builds = 0
Total energy (eV) = -55.378189619126
Number of atoms = 27
Lattice constant (Angstoms) = 8.69348743709288
Total wall time: 0:00:00
