LAMMPS (22 Jul 2025 - Update 1)
# ---------- 1. Initialize simulation ---------------------
units metal
atom_style atomic
dimension  3
boundary   p p f
read_data /home/bond/Work/Lab1/Surface/EAM/relax/6_7_111/lammps.data
Reading data file ...
  orthogonal box = (0 0 0) to (8.6584976 7.4984789 25.782723)
  1 by 1 by 1 MPI processor grid
  reading atoms ...
  54 atoms
  read_data CPU = 0.001 seconds

# ---------- 2. Specify interatomic potential ---------------------
pair_style eam/alloy
pair_coeff * * /home/bond/Software/LAMMPS/lammps-22Jul2025/potentials/Al_zhou.eam.alloy  Al
Reading eam/alloy potential file /home/bond/Software/LAMMPS/lammps-22Jul2025/potentials/Al_zhou.eam.alloy with DATE: 2007-10-12

# pair_style lj/cut 4.5
# pair_coeff 1 1 0.392 2.620 4.5

# ---------- 3. Run single point calculation  ---------------------
thermo_style custom step pe lx ly lz press pxx pyy pzz
run 0
WARNING: No fixes with time integration, atoms won't move
For more information see https://docs.lammps.org/err0028 (../verlet.cpp:60)
Neighbor list info ...
  update: every = 1 steps, delay = 0 steps, check = yes
  max neighbors/atom: 2000, page size: 100000
  master list distance cutoff = 12.1025
  ghost atom cutoff = 12.1025
  binsize = 6.05125, bins = 2 2 5
  1 neighbor lists, perpetual/occasional/extra = 1 0 0
  (1) pair eam/alloy, perpetual
      attributes: half, newton on
      pair build: half/bin/atomonly/newton
      stencil: half/bin/3d
      bin: standard
Per MPI rank memory allocation (min/avg/max) = 3.336 | 3.336 | 3.336 Mbytes
   Step         PotEng           Lx             Ly             Lz           Press           Pxx            Pyy            Pzz      
         0  -183.35756      8.6584976      7.4984789      25.782723     -537.29315     -12391.658      10426.695      353.08389    
Loop time of 2.15e-06 on 1 procs for 0 steps with 54 atoms

139.5% CPU use with 1 MPI tasks x no OpenMP threads

MPI task timing breakdown:
Section |  min time  |  avg time  |  max time  |%varavg| %total
---------------------------------------------------------------
Pair    | 0          | 0          | 0          |   0.0 |  0.00
Neigh   | 0          | 0          | 0          |   0.0 |  0.00
Comm    | 0          | 0          | 0          |   0.0 |  0.00
Output  | 0          | 0          | 0          |   0.0 |  0.00
Modify  | 0          | 0          | 0          |   0.0 |  0.00
Other   |            | 2.15e-06   |            |       |100.00

Nlocal:             54 ave          54 max          54 min
Histogram: 1 0 0 0 0 0 0 0 0 0
Nghost:            824 ave         824 max         824 min
Histogram: 1 0 0 0 0 0 0 0 0 0
Neighs:           8016 ave        8016 max        8016 min
Histogram: 1 0 0 0 0 0 0 0 0 0

Total # of neighbors = 8016
Ave neighs/atom = 148.44444
Neighbor list builds = 0
Dangerous builds = 0
# -- include optimization of the unit cell parameter
#fix 1 all box/relax x 0.0 y 0.0 couple xy vmax 0.001

# -- enable optimization of atomic positions (and the cell)
min_style cg
minimize 1e-10 1e-10 1000 10000
Per MPI rank memory allocation (min/avg/max) = 4.461 | 4.461 | 4.461 Mbytes
   Step         PotEng           Lx             Ly             Lz           Press           Pxx            Pyy            Pzz      
         0  -183.35756      8.6584976      7.4984789      25.782723     -537.29315     -12391.658      10426.695      353.08389    
        24  -184.82943      8.6584976      7.4984789      25.782723      974.70139     -6729.2187      9653.3431     -0.020198536  
Loop time of 0.0260644 on 1 procs for 24 steps with 54 atoms

99.5% CPU use with 1 MPI tasks x no OpenMP threads

Minimization stats:
  Stopping criterion = energy tolerance
  Energy initial, next-to-last, final = 
     -183.357557329858   -184.82942604848  -184.829426054679
  Force two-norm initial, final = 3.8625141 0.00011767616
  Force max component initial, final = 0.66710948 2.7144402e-05
  Final line search alpha, max atom move = 1 2.7144402e-05
  Iterations, force evaluations = 24 48

MPI task timing breakdown:
Section |  min time  |  avg time  |  max time  |%varavg| %total
---------------------------------------------------------------
Pair    | 0.025447   | 0.025447   | 0.025447   |   0.0 | 97.63
Neigh   | 0          | 0          | 0          |   0.0 |  0.00
Comm    | 0.00026854 | 0.00026854 | 0.00026854 |   0.0 |  1.03
Output  | 0          | 0          | 0          |   0.0 |  0.00
Modify  | 0          | 0          | 0          |   0.0 |  0.00
Other   |            | 0.0003492  |            |       |  1.34

Nlocal:             54 ave          54 max          54 min
Histogram: 1 0 0 0 0 0 0 0 0 0
Nghost:            824 ave         824 max         824 min
Histogram: 1 0 0 0 0 0 0 0 0 0
Neighs:           8016 ave        8016 max        8016 min
Histogram: 1 0 0 0 0 0 0 0 0 0

Total # of neighbors = 8016
Ave neighs/atom = 148.44444
Neighbor list builds = 0
Dangerous builds = 0

# ---- 4. Define and print useful variables -------------
variable natoms equal "count(all)"
variable totenergy equal "pe"
variable length equal "lx"

print "Total energy (eV) = ${totenergy}"
Total energy (eV) = -184.829426054679
print "Number of atoms = ${natoms}"
Number of atoms = 54
print "Lattice constant (Angstoms) = ${length}"
Lattice constant (Angstoms) = 8.65849758507688
Total wall time: 0:00:00
