
     Program PWSCF v.7.4.1 starts on  7Oct2025 at 20:35:46 

     This program is part of the open-source Quantum ESPRESSO suite
     for quantum simulation of materials; please cite
         "P. Giannozzi et al., J. Phys.:Condens. Matter 21 395502 (2009);
         "P. Giannozzi et al., J. Phys.:Condens. Matter 29 465901 (2017);
         "P. Giannozzi et al., J. Chem. Phys. 152 154105 (2020);
          URL http://www.quantum-espresso.org", 
     in publications or presentations arising from this work. More details at
     http://www.quantum-espresso.org/quote

     Parallel version (MPI), running on     1 processors

     MPI processes distributed on     1 nodes
     1597 MiB available memory on the printing compute node when the environment starts

     Waiting for input...
     Reading input from standard input
Warning: card &CELL ignored
Warning: card / ignored

     Current dimensions of program PWSCF are:
     Max number of different atomic species (ntypx) = 10
     Max number of k-points (npk) =  40000
     Max angular momentum in pseudopotentials (lmaxx) =  4
     Message from routine setup:
     using ibrav=0 with symmetry is DISCOURAGED, use correct ibrav instead

     Subspace diagonalization in iterative solution of the eigenvalue problem:
     a serial algorithm will be used


     G-vector sticks info
     --------------------
     sticks:   dense  smooth     PW     G-vecs:    dense   smooth      PW
     Sum         367     367    121                 4645     4645     869

     Using Slab Decomposition



     bravais-lattice index     =            0
     lattice parameter (alat)  =       6.6812  a.u.
     unit-cell volume          =     210.8855 (a.u.)^3
     number of atoms/cell      =            2
     number of atomic types    =            1
     number of electrons       =        28.00
     number of Kohn-Sham states=           14
     kinetic-energy cutoff     =      30.0000  Ry
     charge density cutoff     =     120.0000  Ry
     scf convergence threshold =      1.0E-07
     mixing beta               =       0.5000
     number of iterations used =            8  plain     mixing
     Exchange-correlation=  SLA  PZ   NOGX NOGC
                           (   1   1   0   0   0   0   0)

     celldm(1)=   6.681191  celldm(2)=   0.000000  celldm(3)=   0.000000
     celldm(4)=   0.000000  celldm(5)=   0.000000  celldm(6)=   0.000000

     crystal axes: (cart. coord. in units of alat)
               a(1) = (   0.000000   0.707107   0.707107 )  
               a(2) = (   0.707107   0.000000   0.707107 )  
               a(3) = (   0.707107   0.707107   0.000000 )  

     reciprocal axes: (cart. coord. in units 2 pi/alat)
               b(1) = ( -0.707107  0.707107  0.707107 )  
               b(2) = (  0.707107 -0.707107  0.707107 )  
               b(3) = (  0.707107  0.707107 -0.707107 )  


     PseudoPot. # 1 for Ge read from file:
     /home/bond/Software/QE/qe-7.4.1/pseudo/ge_lda_v1.4.uspp.F.UPF
     MD5 check sum: bf9d52b59cc8a669818bb2b52e0c2ba0
     Pseudo is Ultrasoft + core correction, Zval = 14.0
     Generated by new atomic code, or converted to UPF format
     Using radial grid of  873 points,  6 beta functions with: 
                l(1) =   0
                l(2) =   0
                l(3) =   1
                l(4) =   1
                l(5) =   2
                l(6) =   2
     Q(r) pseudized with  8 coefficients,  rinner =    1.400   1.400   1.400
                                                       1.400   1.400

     atomic species   valence    mass     pseudopotential
     Ge               14.00    72.61000     Ge( 1.00)

     48 Sym. Ops., with inversion, found (24 have fractional translation)



   Cartesian axes

     site n.     atom                  positions (alat units)
         1        Ge     tau(   1) = (   0.0000000   0.0000000   0.0000000  )
         2        Ge     tau(   2) = (   0.3535534   0.3535534   0.3535534  )

     number of k points=     8
                       cart. coord. in units 2pi/alat
        k(    1) = (   0.0000000   0.0000000   0.0000000), wk =   0.0312500
        k(    2) = (   0.1767767   0.1767767  -0.1767767), wk =   0.2500000
        k(    3) = (  -0.3535534  -0.3535534   0.3535534), wk =   0.1250000
        k(    4) = (   0.3535534   0.0000000   0.0000000), wk =   0.1875000
        k(    5) = (  -0.1767767  -0.5303301   0.5303301), wk =   0.7500000
        k(    6) = (   0.0000000  -0.3535534   0.3535534), wk =   0.3750000
        k(    7) = (  -0.7071068   0.0000000   0.0000000), wk =   0.0937500
        k(    8) = (  -0.7071068   0.3535534   0.0000000), wk =   0.1875000

     Dense  grid:     4645 G-vectors     FFT dimensions: (  24,  24,  24)

     Estimated max dynamical RAM per process >      19.45 MB

     Check: negative core charge=   -0.000158

     Initial potential from superposition of free atoms

     starting charge      27.9986, renormalised to      28.0000
     Starting wfcs are   18 randomized atomic wfcs

     total cpu time spent up to now is        1.1 secs

     Self-consistent Calculation

     iteration #  1     ecut=    30.00 Ry     beta= 0.50
     Davidson diagonalization with overlap
     ethr =  1.00E-02,  avg # of iterations =  2.0

     Threshold (ethr) on eigenvalues was too large:
     Diagonalizing with lowered threshold

     Davidson diagonalization with overlap
     ethr =  2.31E-04,  avg # of iterations =  1.1

     total cpu time spent up to now is        1.5 secs

     total energy              =    -425.99351636 Ry
     estimated scf accuracy    <       0.06597901 Ry

     iteration #  2     ecut=    30.00 Ry     beta= 0.50
     Davidson diagonalization with overlap
     ethr =  2.36E-04,  avg # of iterations =  1.4

     total cpu time spent up to now is        1.7 secs

     total energy              =    -425.99099467 Ry
     estimated scf accuracy    <       0.01053939 Ry

     iteration #  3     ecut=    30.00 Ry     beta= 0.50
     Davidson diagonalization with overlap
     ethr =  3.76E-05,  avg # of iterations =  2.0

     total cpu time spent up to now is        1.9 secs

     total energy              =    -425.99196493 Ry
     estimated scf accuracy    <       0.00009688 Ry

     iteration #  4     ecut=    30.00 Ry     beta= 0.50
     Davidson diagonalization with overlap
     ethr =  3.46E-07,  avg # of iterations =  2.4

     total cpu time spent up to now is        2.1 secs

     total energy              =    -425.99198990 Ry
     estimated scf accuracy    <       0.00000488 Ry

     iteration #  5     ecut=    30.00 Ry     beta= 0.50
     Davidson diagonalization with overlap
     ethr =  1.74E-08,  avg # of iterations =  2.8

     total cpu time spent up to now is        2.6 secs

     total energy              =    -425.99199107 Ry
     estimated scf accuracy    <       0.00000055 Ry

     iteration #  6     ecut=    30.00 Ry     beta= 0.50
     Davidson diagonalization with overlap
     ethr =  1.95E-09,  avg # of iterations =  2.2

     total cpu time spent up to now is        2.8 secs

     End of self-consistent calculation

          k = 0.0000 0.0000 0.0000 (   561 PWs)   bands (ev):

   -11.8564 -11.8564 -11.8564 -11.7564 -11.7564 -11.2444 -11.2444 -11.2444
   -11.1799 -11.1799  -2.1491  14.1631  14.1631  14.1631

          k = 0.1768 0.1768-0.1768 (   580 PWs)   bands (ev):

   -11.8991 -11.8991 -11.8363 -11.7057 -11.7057 -11.2977 -11.2977 -11.2915
   -11.1442 -11.1442  -1.0912   8.3823  12.7774  12.7774

          k =-0.3536-0.3536 0.3536 (   580 PWs)   bands (ev):

   -11.9078 -11.9078 -11.8158 -11.6800 -11.6800 -11.3040 -11.3040 -11.2999
   -11.1430 -11.1430   1.0751   4.0904  12.0436  12.0436

          k = 0.3536 0.0000 0.0000 (   576 PWs)   bands (ev):

   -11.8915 -11.8915 -11.8886 -11.6742 -11.5960 -11.4786 -11.2598 -11.1764
   -11.1764 -11.1610  -0.7266   9.2637  10.9670  10.9670

          k =-0.1768-0.5303 0.5303 (   584 PWs)   bands (ev):

   -11.9627 -11.9258 -11.7789 -11.5972 -11.5534 -11.5061 -11.3630 -11.2937
   -11.1145 -11.0761   1.5042   5.1695   8.6146  10.4650

          k = 0.0000-0.3536 0.3536 (   590 PWs)   bands (ev):

   -11.9509 -11.9396 -11.7569 -11.6704 -11.5898 -11.4083 -11.3788 -11.3098
   -11.1047 -11.0982   0.5827   6.4484   8.2297  11.8488

          k =-0.7071 0.0000 0.0000 (   588 PWs)   bands (ev):

   -11.9287 -11.9287 -11.7589 -11.7589 -11.4688 -11.4688 -11.3293 -11.3293
   -11.0994 -11.0994   3.3724   3.3724   9.4639   9.4639

          k =-0.7071 0.3536 0.0000 (   604 PWs)   bands (ev):

   -11.9731 -11.9731 -11.6409 -11.6409 -11.5076 -11.5076 -11.4142 -11.4142
   -11.0739 -11.0739   3.6524   3.6524   8.0246   8.0246

     highest occupied level (ev):    14.1631

!    total energy              =    -425.99199115 Ry
     estimated scf accuracy    <       0.00000002 Ry

     The total energy is the sum of the following terms:
     one-electron contribution =    -236.53231820 Ry
     hartree contribution      =     149.06636887 Ry
     xc contribution           =    -115.04129383 Ry
     ewald contribution        =    -223.48474799 Ry

     convergence has been achieved in   6 iterations

     Forces acting on atoms (cartesian axes, Ry/au):

     atom    1 type  1   force =     0.00000000    0.00000000    0.00000000
     atom    2 type  1   force =     0.00000000    0.00000000    0.00000000

     Total force =     0.000000     Total SCF correction =     0.000000


     Computing stress (Cartesian axis) and pressure

          total   stress  (Ry/bohr**3)                   (kbar)     P=      377.10
   0.00256348   0.00000000   0.00000000          377.10        0.00        0.00
   0.00000000   0.00256348   0.00000000            0.00      377.10        0.00
   0.00000000   0.00000000   0.00256348            0.00        0.00      377.10


     Writing all to output data dir /home/bond/Work/Lab3/test/pwscf.save/ :
     XML data file, charge density, pseudopotentials, collected wavefunctions

     init_run     :      0.61s CPU      0.82s WALL (       1 calls)
     electrons    :      1.39s CPU      1.71s WALL (       1 calls)
     forces       :      0.04s CPU      0.06s WALL (       1 calls)
     stress       :      0.33s CPU      0.39s WALL (       1 calls)

     Called by init_run:
     wfcinit      :      0.17s CPU      0.24s WALL (       1 calls)
     potinit      :      0.02s CPU      0.02s WALL (       1 calls)
     hinit0       :      0.41s CPU      0.50s WALL (       1 calls)

     Called by electrons:
     c_bands      :      0.92s CPU      1.14s WALL (       7 calls)
     sum_band     :      0.33s CPU      0.39s WALL (       7 calls)
     v_of_rho     :      0.01s CPU      0.01s WALL (       7 calls)
     newd         :      0.13s CPU      0.18s WALL (       7 calls)
     mix_rho      :      0.00s CPU      0.01s WALL (       7 calls)

     Called by c_bands:
     init_us_2    :      0.04s CPU      0.04s WALL (     136 calls)
     cegterg      :      0.83s CPU      1.03s WALL (      56 calls)

     Called by *egterg:
     cdiaghg      :      0.05s CPU      0.11s WALL (     159 calls)
     h_psi        :      0.84s CPU      1.01s WALL (     175 calls)
     s_psi        :      0.02s CPU      0.02s WALL (     175 calls)
     g_psi        :      0.00s CPU      0.01s WALL (     111 calls)

     Called by h_psi:
     h_psi:calbec :      0.03s CPU      0.05s WALL (     175 calls)
     vloc_psi     :      0.78s CPU      0.92s WALL (     175 calls)
     add_vuspsi   :      0.02s CPU      0.04s WALL (     175 calls)

     General routines
     calbec       :      0.06s CPU      0.09s WALL (     367 calls)
     fft          :      0.19s CPU      0.28s WALL (      37 calls)
     ffts         :      0.00s CPU      0.00s WALL (       7 calls)
     fftw         :      0.80s CPU      0.94s WALL (    4910 calls)

     Parallel routines

     PWSCF        :      2.61s CPU      3.31s WALL


   This run was terminated on:  20:35:49   7Oct2025            

=------------------------------------------------------------------------------=
   JOB DONE.
=------------------------------------------------------------------------------=
