LAMMPS (22 Jul 2025 - Update 1)
Reading data file ...
  orthogonal box = (0 0 0) to (20.612615 20.612615 20.612615)
  1 by 1 by 1 MPI processor grid
  reading atoms ...
  499 atoms
  read_data CPU = 0.003 seconds
WARNING: No fixes with time integration, atoms won't move
For more information see https://docs.lammps.org/err0028 (../verlet.cpp:60)
Generated 0 of 0 mixed pair_coeff terms from geometric mixing rule
Neighbor list info ...
  update: every = 1 steps, delay = 0 steps, check = yes
  max neighbors/atom: 2000, page size: 100000
  master list distance cutoff = 6.5
  ghost atom cutoff = 6.5
  binsize = 3.25, bins = 7 7 7
  1 neighbor lists, perpetual/occasional/extra = 1 0 0
  (1) pair lj/cut, perpetual
      attributes: half, newton on
      pair build: half/bin/atomonly/newton
      stencil: half/bin/3d
      bin: standard
Setting up Verlet run ...
  Unit style    : metal
  Current step  : 0
  Time step     : 0.001
Per MPI rank memory allocation (min/avg/max) = 3.145 | 3.145 | 3.145 Mbytes
   Step         PotEng           Lx             Ly             Lz           Press           Pxx            Pyy            Pzz      
         0  -1312.0331      20.612615      20.612615      20.612615     -0.0075746253  -0.0099267478  -0.0028703802  -0.0099267478 
Loop time of 1.507e-06 on 1 procs for 0 steps with 499 atoms

199.1% CPU use with 1 MPI tasks x no OpenMP threads

MPI task timing breakdown:
Section |  min time  |  avg time  |  max time  |%varavg| %total
---------------------------------------------------------------
Pair    | 0          | 0          | 0          |   0.0 |  0.00
Neigh   | 0          | 0          | 0          |   0.0 |  0.00
Comm    | 0          | 0          | 0          |   0.0 |  0.00
Output  | 0          | 0          | 0          |   0.0 |  0.00
Modify  | 0          | 0          | 0          |   0.0 |  0.00
Other   |            | 1.507e-06  |            |       |100.00

Nlocal:            499 ave         499 max         499 min
Histogram: 1 0 0 0 0 0 0 0 0 0
Nghost:           1949 ave        1949 max        1949 min
Histogram: 1 0 0 0 0 0 0 0 0 0
Neighs:          13446 ave       13446 max       13446 min
Histogram: 1 0 0 0 0 0 0 0 0 0

Total # of neighbors = 13446
Ave neighs/atom = 26.945892
Neighbor list builds = 0
Dangerous builds = 0
Generated 0 of 0 mixed pair_coeff terms from geometric mixing rule
Setting up cg style minimization ...
  Unit style    : metal
  Current step  : 0
WARNING: Energy due to 1 extra global DOFs will be included in minimizer energies
 (../min.cpp:222)
Per MPI rank memory allocation (min/avg/max) = 4.27 | 4.27 | 4.27 Mbytes
   Step         PotEng           Lx             Ly             Lz           Press           Pxx            Pyy            Pzz      
         0  -1312.0331      20.612615      20.612615      20.612615     -0.0075746253  -0.0099267478  -0.0028703802  -0.0099267478 
        29  -1312.0413      20.612408      20.612408      20.612408      0.69059973     0.69080904     0.69018112     0.69080904   
Loop time of 0.0129586 on 1 procs for 29 steps with 499 atoms

100.0% CPU use with 1 MPI tasks x no OpenMP threads

Minimization stats:
  Stopping criterion = energy tolerance
  Energy initial, next-to-last, final = 
      -1312.0331168833  -1312.04126233977  -1312.04126234097
  Force two-norm initial, final = 0.45226628 0.013021293
  Force max component initial, final = 0.13063076 0.01132473
  Final line search alpha, max atom move = 0.27782458 0.0031462883
  Iterations, force evaluations = 29 58

MPI task timing breakdown:
Section |  min time  |  avg time  |  max time  |%varavg| %total
---------------------------------------------------------------
Pair    | 0.0098984  | 0.0098984  | 0.0098984  |   0.0 | 76.38
Neigh   | 0          | 0          | 0          |   0.0 |  0.00
Comm    | 0.0005166  | 0.0005166  | 0.0005166  |   0.0 |  3.99
Output  | 0          | 0          | 0          |   0.0 |  0.00
Modify  | 0          | 0          | 0          |   0.0 |  0.00
Other   |            | 0.002544   |            |       | 19.63

Nlocal:            499 ave         499 max         499 min
Histogram: 1 0 0 0 0 0 0 0 0 0
Nghost:           1949 ave        1949 max        1949 min
Histogram: 1 0 0 0 0 0 0 0 0 0
Neighs:          13446 ave       13446 max       13446 min
Histogram: 1 0 0 0 0 0 0 0 0 0

Total # of neighbors = 13446
Ave neighs/atom = 26.945892
Neighbor list builds = 0
Dangerous builds = 0
Total energy (eV) = -1312.04126234097
Number of atoms = 499
Lattice constant (Angstoms) = 20.6124077766054
Total wall time: 0:00:00
