
     Program PWSCF v.7.4.1 starts on 20Oct2025 at 23:15:25 

     This program is part of the open-source Quantum ESPRESSO suite
     for quantum simulation of materials; please cite
         "P. Giannozzi et al., J. Phys.:Condens. Matter 21 395502 (2009);
         "P. Giannozzi et al., J. Phys.:Condens. Matter 29 465901 (2017);
         "P. Giannozzi et al., J. Chem. Phys. 152 154105 (2020);
          URL http://www.quantum-espresso.org", 
     in publications or presentations arising from this work. More details at
     http://www.quantum-espresso.org/quote

     Parallel version (MPI), running on     2 processors

     MPI processes distributed on     1 nodes
     196 MiB available memory on the printing compute node when the environment starts

     Waiting for input...
     Reading input from standard input
Warning: card &CELL ignored
Warning: card / ignored

     Current dimensions of program PWSCF are:
     Max number of different atomic species (ntypx) = 10
     Max number of k-points (npk) =  40000
     Max angular momentum in pseudopotentials (lmaxx) =  4
     file Fe.pbe-nd-rrkjus.UPF: wavefunction(s)  4S renormalized
     Message from routine find_sym:
     Not a group! Trying with lower acceptance parameter...
     Message from routine find_sym:
     Symmetry operations form a group
     Message from routine setup:
     using ibrav=0 with symmetry is DISCOURAGED, use correct ibrav instead

     R & G space division:  proc/nbgrp/npool/nimage =       2
     Subspace diagonalization in iterative solution of the eigenvalue problem:
     a serial algorithm will be used


     Parallelization info
     --------------------
     sticks:   dense  smooth     PW     G-vecs:    dense   smooth      PW
     Min         273     105     36                 8775     2225     422
     Max         274     106     37                 8776     2228     423
     Sum         547     211     73                17551     4453     845

     Using Slab Decomposition



     bravais-lattice index     =            0
     lattice parameter (alat)  =       5.1023  a.u.
     unit-cell volume          =     199.8105 (a.u.)^3
     number of atoms/cell      =            2
     number of atomic types    =            1
     number of electrons       =        16.00
     number of Kohn-Sham states=           12
     kinetic-energy cutoff     =      30.0000  Ry
     charge density cutoff     =     300.0000  Ry
     scf convergence threshold =      1.0E-07
     mixing beta               =       0.5000
     number of iterations used =            8  plain     mixing
     Exchange-correlation=  SLA  PW   PBE  PBE
                           (   1   4   3   4   0   0   0)

     celldm(1)=   5.102261  celldm(2)=   0.000000  celldm(3)=   0.000000
     celldm(4)=   0.000000  celldm(5)=   0.000000  celldm(6)=   0.000000

     crystal axes: (cart. coord. in units of alat)
               a(1) = (   1.000000   0.000000   0.000000 )  
               a(2) = (  -0.500000   0.866025   0.000000 )  
               a(3) = (   0.000000   0.000000   1.737000 )  

     reciprocal axes: (cart. coord. in units 2 pi/alat)
               b(1) = (  1.000000  0.577350 -0.000000 )  
               b(2) = (  0.000000  1.154701  0.000000 )  
               b(3) = (  0.000000 -0.000000  0.575705 )  


     PseudoPot. # 1 for Fe read from file:
     /home/bond/Software/QE/qe-7.4.1/pseudo/Fe.pbe-nd-rrkjus.UPF
     MD5 check sum: 398036227a04b607635f6f5e8dfd8242
     Pseudo is Ultrasoft + core correction, Zval =  8.0
     Generated by new atomic code, or converted to UPF format
     Using radial grid of  957 points,  6 beta functions with: 
                l(1) =   0
                l(2) =   0
                l(3) =   1
                l(4) =   1
                l(5) =   2
                l(6) =   2
     Q(r) pseudized with 0 coefficients 


     atomic species   valence    mass     pseudopotential
     Fe                8.00    55.84500     Fe( 1.00)

     Starting magnetic structure 
     atomic species   magnetization
     Fe              0.700

      4 Sym. Ops. (no inversion) found



   Cartesian axes

     site n.     atom                  positions (alat units)
         1        Fe     tau(   1) = (   0.0000000   0.0000000   0.0000000  )
         2        Fe     tau(   2) = (   0.0000000   0.5773519   0.8685000  )

     number of k points=   228  Methfessel-Paxton smearing, width (Ry)=  0.0200

     Number of k-points >= 100: set verbosity='high' to print them.

     Dense  grid:    17551 G-vectors     FFT dimensions: (  30,  30,  50)

     Smooth grid:     4453 G-vectors     FFT dimensions: (  18,  18,  32)

     Estimated max dynamical RAM per process >      60.52 MB

     Estimated total dynamical RAM >     121.03 MB

     Check: negative core charge=   -0.000011
     Generating pointlists ...
     new r_m :   0.4125 (alat units)  2.1047 (a.u.) for type    1

     Initial potential from superposition of free atoms

     starting charge      15.9987, renormalised to      16.0000
     Starting wfcs are   12 randomized atomic wfcs

     total cpu time spent up to now is        2.8 secs

     Self-consistent Calculation

     iteration #  1     ecut=    30.00 Ry     beta= 0.50
     Davidson diagonalization with overlap
     ethr =  1.00E-02,  avg # of iterations =  4.0

     total cpu time spent up to now is        9.2 secs

     total energy              =    -111.30973665 Ry
     estimated scf accuracy    <       0.59627945 Ry

     total magnetization       =     7.08 Bohr mag/cell
     absolute magnetization    =     7.08 Bohr mag/cell

     iteration #  2     ecut=    30.00 Ry     beta= 0.50
     Davidson diagonalization with overlap
     ethr =  3.73E-03,  avg # of iterations =  2.2

     total cpu time spent up to now is       15.0 secs

     total energy              =    -111.50988421 Ry
     estimated scf accuracy    <       0.08245316 Ry

     total magnetization       =     6.25 Bohr mag/cell
     absolute magnetization    =     6.27 Bohr mag/cell

     iteration #  3     ecut=    30.00 Ry     beta= 0.50
     Davidson diagonalization with overlap
     ethr =  5.15E-04,  avg # of iterations =  1.6

     total cpu time spent up to now is       19.7 secs

     total energy              =    -111.54335586 Ry
     estimated scf accuracy    <       0.01073126 Ry

     total magnetization       =     6.22 Bohr mag/cell
     absolute magnetization    =     6.27 Bohr mag/cell

     iteration #  4     ecut=    30.00 Ry     beta= 0.50
     Davidson diagonalization with overlap
     ethr =  6.71E-05,  avg # of iterations =  2.9

     total cpu time spent up to now is       25.2 secs

     total energy              =    -111.55190991 Ry
     estimated scf accuracy    <       0.02822536 Ry

     total magnetization       =     5.77 Bohr mag/cell
     absolute magnetization    =     6.03 Bohr mag/cell

     iteration #  5     ecut=    30.00 Ry     beta= 0.50
     Davidson diagonalization with overlap
     ethr =  6.71E-05,  avg # of iterations =  1.0

     total cpu time spent up to now is       29.6 secs

     total energy              =    -111.55341825 Ry
     estimated scf accuracy    <       0.00279937 Ry

     total magnetization       =     5.76 Bohr mag/cell
     absolute magnetization    =     6.03 Bohr mag/cell

     iteration #  6     ecut=    30.00 Ry     beta= 0.50
     Davidson diagonalization with overlap
     ethr =  1.75E-05,  avg # of iterations =  1.9

     total cpu time spent up to now is       34.5 secs

     total energy              =    -111.55416927 Ry
     estimated scf accuracy    <       0.00008132 Ry

     total magnetization       =     5.72 Bohr mag/cell
     absolute magnetization    =     6.02 Bohr mag/cell

     iteration #  7     ecut=    30.00 Ry     beta= 0.50
     Davidson diagonalization with overlap
     ethr =  5.08E-07,  avg # of iterations =  4.8

     total cpu time spent up to now is       42.3 secs

     total energy              =    -111.55425516 Ry
     estimated scf accuracy    <       0.00002841 Ry

     total magnetization       =     5.72 Bohr mag/cell
     absolute magnetization    =     6.03 Bohr mag/cell

     iteration #  8     ecut=    30.00 Ry     beta= 0.50
     Davidson diagonalization with overlap
     ethr =  1.78E-07,  avg # of iterations =  3.6

     total cpu time spent up to now is       48.8 secs

     total energy              =    -111.55430344 Ry
     estimated scf accuracy    <       0.00002012 Ry

     total magnetization       =     5.71 Bohr mag/cell
     absolute magnetization    =     6.04 Bohr mag/cell

     iteration #  9     ecut=    30.00 Ry     beta= 0.50
     Davidson diagonalization with overlap
     ethr =  1.26E-07,  avg # of iterations =  1.5

     total cpu time spent up to now is       53.4 secs

     total energy              =    -111.55430062 Ry
     estimated scf accuracy    <       0.00002389 Ry

     total magnetization       =     5.71 Bohr mag/cell
     absolute magnetization    =     6.04 Bohr mag/cell

     iteration # 10     ecut=    30.00 Ry     beta= 0.50
     Davidson diagonalization with overlap
     ethr =  1.26E-07,  avg # of iterations =  2.0

     total cpu time spent up to now is       58.6 secs

     total energy              =    -111.55430747 Ry
     estimated scf accuracy    <       0.00000013 Ry

     total magnetization       =     5.72 Bohr mag/cell
     absolute magnetization    =     6.04 Bohr mag/cell

     iteration # 11     ecut=    30.00 Ry     beta= 0.50
     Davidson diagonalization with overlap
     c_bands:  1 eigenvalues not converged
     c_bands:  1 eigenvalues not converged
     c_bands:  2 eigenvalues not converged
     ethr =  8.25E-10,  avg # of iterations = 12.3

     total cpu time spent up to now is       75.9 secs

     total energy              =    -111.55430882 Ry
     estimated scf accuracy    <       0.00000025 Ry

     total magnetization       =     5.72 Bohr mag/cell
     absolute magnetization    =     6.04 Bohr mag/cell

     iteration # 12     ecut=    30.00 Ry     beta= 0.50
     Davidson diagonalization with overlap
     ethr =  8.25E-10,  avg # of iterations =  3.3

     Magnetic moment per site  (integrated on atomic sphere of radius R)
     atom   1 (R=0.413)  charge=  6.6674  magn=  2.9309
     atom   2 (R=0.413)  charge=  6.6674  magn=  2.9309

     total cpu time spent up to now is       82.1 secs

     End of self-consistent calculation

     Number of k-points >= 100: set verbosity='high' to print the bands.

     the Fermi energy is    10.0380 ev

!    total energy              =    -111.55430892 Ry
     estimated scf accuracy    <       0.00000003 Ry
     smearing contrib. (-TS)   =      -0.00061353 Ry
     internal energy E=F+TS    =    -111.55369539 Ry

     The total energy is F=E-TS. E is the sum of the following terms:
     one-electron contribution =       4.79011975 Ry
     hartree contribution      =      16.02787330 Ry
     xc contribution           =     -52.74374932 Ry
     ewald contribution        =     -79.62793912 Ry

     total magnetization       =     5.72 Bohr mag/cell
     absolute magnetization    =     6.04 Bohr mag/cell

     convergence has been achieved in  12 iterations

     Forces acting on atoms (cartesian axes, Ry/au):

     atom    1 type  1   force =     0.00000000   -0.00000090    0.00000000
     atom    2 type  1   force =     0.00000000    0.00000090    0.00000000

     Total force =     0.000001     Total SCF correction =     0.000002
     SCF correction compared to forces is large: reduce conv_thr to get better values


     Computing stress (Cartesian axis) and pressure

          total   stress  (Ry/bohr**3)                   (kbar)     P=     -191.92
  -0.00133123   0.00000000   0.00000000         -195.83        0.00        0.00
   0.00000000  -0.00133123   0.00000000            0.00     -195.83        0.00
   0.00000000   0.00000000  -0.00125144            0.00        0.00     -184.09

     Message from routine punch:
     Nothing written, as per user request (disk_io='none')

     init_run     :      2.39s CPU      2.60s WALL (       1 calls)
     electrons    :     73.29s CPU     79.31s WALL (       1 calls)
     forces       :      0.31s CPU      0.31s WALL (       1 calls)
     stress       :      1.59s CPU      1.62s WALL (       1 calls)

     Called by init_run:
     wfcinit      :      1.78s CPU      1.95s WALL (       1 calls)
     potinit      :      0.16s CPU      0.16s WALL (       1 calls)
     hinit0       :      0.36s CPU      0.37s WALL (       1 calls)

     Called by electrons:
     c_bands      :     63.45s CPU     68.80s WALL (      12 calls)
     sum_band     :      8.98s CPU      9.64s WALL (      12 calls)
     v_of_rho     :      0.38s CPU      0.39s WALL (      13 calls)
     newd         :      0.48s CPU      0.51s WALL (      13 calls)
     mix_rho      :      0.03s CPU      0.03s WALL (      12 calls)

     Called by c_bands:
     init_us_2    :      1.32s CPU      1.42s WALL (   12312 calls)
     cegterg      :     59.99s CPU     65.07s WALL (    5472 calls)

     Called by *egterg:
     cdiaghg      :      4.94s CPU      5.38s WALL (   24264 calls)
     h_psi        :     50.06s CPU     54.34s WALL (   24720 calls)
     s_psi        :      0.84s CPU      0.92s WALL (   24720 calls)
     g_psi        :      0.21s CPU      0.23s WALL (   18792 calls)

     Called by h_psi:
     h_psi:calbec :      2.20s CPU      2.39s WALL (   24720 calls)
     vloc_psi     :     46.47s CPU     50.44s WALL (   24720 calls)
     add_vuspsi   :      0.98s CPU      1.07s WALL (   24720 calls)

     General routines
     calbec       :      3.16s CPU      3.41s WALL (   37944 calls)
     fft          :      0.30s CPU      0.30s WALL (     363 calls)
     ffts         :      0.11s CPU      0.11s WALL (      50 calls)
     fftw         :     46.12s CPU     50.05s WALL (  489092 calls)
     interpolate  :      0.12s CPU      0.12s WALL (      26 calls)

     Parallel routines

     PWSCF        :   1m17.75s CPU   1m24.04s WALL


   This run was terminated on:  23:16:49  20Oct2025            

=------------------------------------------------------------------------------=
   JOB DONE.
=------------------------------------------------------------------------------=
