
     Program PWSCF v.7.4.1 starts on  8Oct2025 at 21:35:32 

     This program is part of the open-source Quantum ESPRESSO suite
     for quantum simulation of materials; please cite
         "P. Giannozzi et al., J. Phys.:Condens. Matter 21 395502 (2009);
         "P. Giannozzi et al., J. Phys.:Condens. Matter 29 465901 (2017);
         "P. Giannozzi et al., J. Chem. Phys. 152 154105 (2020);
          URL http://www.quantum-espresso.org", 
     in publications or presentations arising from this work. More details at
     http://www.quantum-espresso.org/quote

     Parallel version (MPI), running on     1 processors

     MPI processes distributed on     1 nodes
     615 MiB available memory on the printing compute node when the environment starts

     Waiting for input...
     Reading input from standard input
Warning: card &CELL ignored
Warning: card / ignored

     Current dimensions of program PWSCF are:
     Max number of different atomic species (ntypx) = 10
     Max number of k-points (npk) =  40000
     Max angular momentum in pseudopotentials (lmaxx) =  4
     Message from routine setup:
     using ibrav=0 with symmetry is DISCOURAGED, use correct ibrav instead

     Subspace diagonalization in iterative solution of the eigenvalue problem:
     a serial algorithm will be used


     G-vector sticks info
     --------------------
     sticks:   dense  smooth     PW     G-vecs:    dense   smooth      PW
     Sum         499     499    163                 7391     7391    1363

     Using Slab Decomposition



     bravais-lattice index     =            0
     lattice parameter (alat)  =       7.2157  a.u.
     unit-cell volume          =     265.6549 (a.u.)^3
     number of atoms/cell      =            2
     number of atomic types    =            1
     number of electrons       =        28.00
     number of Kohn-Sham states=           14
     kinetic-energy cutoff     =      35.0000  Ry
     charge density cutoff     =     140.0000  Ry
     scf convergence threshold =      1.0E-07
     mixing beta               =       0.5000
     number of iterations used =            8  plain     mixing
     Exchange-correlation=  SLA  PZ   NOGX NOGC
                           (   1   1   0   0   0   0   0)

     celldm(1)=   7.215686  celldm(2)=   0.000000  celldm(3)=   0.000000
     celldm(4)=   0.000000  celldm(5)=   0.000000  celldm(6)=   0.000000

     crystal axes: (cart. coord. in units of alat)
               a(1) = (   0.000000   0.707107   0.707107 )  
               a(2) = (   0.707107   0.000000   0.707107 )  
               a(3) = (   0.707107   0.707107   0.000000 )  

     reciprocal axes: (cart. coord. in units 2 pi/alat)
               b(1) = ( -0.707107  0.707107  0.707107 )  
               b(2) = (  0.707107 -0.707107  0.707107 )  
               b(3) = (  0.707107  0.707107 -0.707107 )  


     PseudoPot. # 1 for Ge read from file:
     /home/bond/Software/QE/qe-7.4.1/pseudo/ge_lda_v1.4.uspp.F.UPF
     MD5 check sum: bf9d52b59cc8a669818bb2b52e0c2ba0
     Pseudo is Ultrasoft + core correction, Zval = 14.0
     Generated by new atomic code, or converted to UPF format
     Using radial grid of  873 points,  6 beta functions with: 
                l(1) =   0
                l(2) =   0
                l(3) =   1
                l(4) =   1
                l(5) =   2
                l(6) =   2
     Q(r) pseudized with  8 coefficients,  rinner =    1.400   1.400   1.400
                                                       1.400   1.400

     atomic species   valence    mass     pseudopotential
     Ge               14.00    72.63000     Ge( 1.00)

     48 Sym. Ops., with inversion, found (24 have fractional translation)



   Cartesian axes

     site n.     atom                  positions (alat units)
         1        Ge     tau(   1) = (   0.0000000   0.0000000   0.0000000  )
         2        Ge     tau(   2) = (   0.3535534   0.3535534   0.3535534  )

     number of k points=    47
                       cart. coord. in units 2pi/alat
        k(    1) = (   0.0000000   0.0000000   0.0000000), wk =   0.0020000
        k(    2) = (   0.0707107   0.0707107  -0.0707107), wk =   0.0160000
        k(    3) = (   0.1414214   0.1414214  -0.1414214), wk =   0.0160000
        k(    4) = (   0.2121320   0.2121320  -0.2121320), wk =   0.0160000
        k(    5) = (   0.2828427   0.2828427  -0.2828427), wk =   0.0160000
        k(    6) = (  -0.3535534  -0.3535534   0.3535534), wk =   0.0080000
        k(    7) = (   0.1414214   0.0000000   0.0000000), wk =   0.0120000
        k(    8) = (   0.2121320   0.0707107  -0.0707107), wk =   0.0480000
        k(    9) = (   0.2828427   0.1414214  -0.1414214), wk =   0.0480000
        k(   10) = (   0.3535534   0.2121320  -0.2121320), wk =   0.0480000
        k(   11) = (  -0.2828427  -0.4242641   0.4242641), wk =   0.0480000
        k(   12) = (  -0.2121320  -0.3535534   0.3535534), wk =   0.0480000
        k(   13) = (  -0.1414214  -0.2828427   0.2828427), wk =   0.0480000
        k(   14) = (  -0.0707107  -0.2121320   0.2121320), wk =   0.0480000
        k(   15) = (   0.0000000  -0.1414214   0.1414214), wk =   0.0240000
        k(   16) = (   0.2828427   0.0000000   0.0000000), wk =   0.0120000
        k(   17) = (   0.3535534   0.0707107  -0.0707107), wk =   0.0480000
        k(   18) = (   0.4242641   0.1414214  -0.1414214), wk =   0.0480000
        k(   19) = (  -0.2121320  -0.4949747   0.4949747), wk =   0.0480000
        k(   20) = (  -0.1414214  -0.4242641   0.4242641), wk =   0.0480000
        k(   21) = (  -0.0707107  -0.3535534   0.3535534), wk =   0.0480000
        k(   22) = (   0.0000000  -0.2828427   0.2828427), wk =   0.0240000
        k(   23) = (   0.4242641   0.0000000   0.0000000), wk =   0.0120000
        k(   24) = (   0.4949747   0.0707107  -0.0707107), wk =   0.0480000
        k(   25) = (  -0.1414214  -0.5656854   0.5656854), wk =   0.0480000
        k(   26) = (  -0.0707107  -0.4949747   0.4949747), wk =   0.0480000
        k(   27) = (  -0.0000000  -0.4242641   0.4242641), wk =   0.0240000
        k(   28) = (   0.5656854   0.0000000   0.0000000), wk =   0.0120000
        k(   29) = (  -0.0707107  -0.6363961   0.6363961), wk =   0.0480000
        k(   30) = (   0.0000000  -0.5656854   0.5656854), wk =   0.0240000
        k(   31) = (  -0.7071068   0.0000000   0.0000000), wk =   0.0060000
        k(   32) = (   0.2828427   0.1414214   0.0000000), wk =   0.0480000
        k(   33) = (   0.3535534   0.2121320  -0.0707107), wk =   0.0960000
        k(   34) = (  -0.2828427  -0.4242641   0.5656854), wk =   0.0960000
        k(   35) = (  -0.2121320  -0.3535534   0.4949747), wk =   0.0480000
        k(   36) = (   0.4242641   0.1414214  -0.0000000), wk =   0.0480000
        k(   37) = (  -0.2121320  -0.4949747   0.6363961), wk =   0.0960000
        k(   38) = (  -0.1414214  -0.4242641   0.5656854), wk =   0.0960000
        k(   39) = (  -0.0707107  -0.3535534   0.4949747), wk =   0.0960000
        k(   40) = (   0.0000000  -0.2828427   0.4242641), wk =   0.0480000
        k(   41) = (  -0.1414214  -0.5656854   0.7071068), wk =   0.0480000
        k(   42) = (  -0.0707107  -0.4949747   0.6363961), wk =   0.0960000
        k(   43) = (  -0.0000000  -0.4242641   0.5656854), wk =   0.0480000
        k(   44) = (  -0.7071068   0.1414214   0.0000000), wk =   0.0240000
        k(   45) = (  -0.1414214  -0.4242641   0.7071068), wk =   0.0480000
        k(   46) = (  -0.0707107  -0.3535534   0.6363961), wk =   0.0480000
        k(   47) = (  -0.7071068   0.2828427   0.0000000), wk =   0.0240000

     Dense  grid:     7391 G-vectors     FFT dimensions: (  32,  32,  32)

     Estimated max dynamical RAM per process >      38.98 MB

     Check: negative core charge=   -0.000019

     Initial potential from superposition of free atoms

     starting charge      27.9986, renormalised to      28.0000
     Starting wfcs are   18 randomized atomic wfcs

     total cpu time spent up to now is        1.1 secs

     Self-consistent Calculation

     iteration #  1     ecut=    35.00 Ry     beta= 0.50
     Davidson diagonalization with overlap
     ethr =  1.00E-02,  avg # of iterations =  2.0

     Threshold (ethr) on eigenvalues was too large:
     Diagonalizing with lowered threshold

     Davidson diagonalization with overlap
     ethr =  1.47E-04,  avg # of iterations =  1.9

     total cpu time spent up to now is        2.9 secs

     total energy              =    -426.15821885 Ry
     estimated scf accuracy    <       0.04300583 Ry

     iteration #  2     ecut=    35.00 Ry     beta= 0.50
     Davidson diagonalization with overlap
     ethr =  1.54E-04,  avg # of iterations =  1.1

     total cpu time spent up to now is        3.8 secs

     total energy              =    -426.15668609 Ry
     estimated scf accuracy    <       0.00714661 Ry

     iteration #  3     ecut=    35.00 Ry     beta= 0.50
     Davidson diagonalization with overlap
     ethr =  2.55E-05,  avg # of iterations =  2.0

     total cpu time spent up to now is        4.7 secs

     total energy              =    -426.15728540 Ry
     estimated scf accuracy    <       0.00007906 Ry

     iteration #  4     ecut=    35.00 Ry     beta= 0.50
     Davidson diagonalization with overlap
     ethr =  2.82E-07,  avg # of iterations =  3.3

     total cpu time spent up to now is        5.8 secs

     total energy              =    -426.15730969 Ry
     estimated scf accuracy    <       0.00000293 Ry

     iteration #  5     ecut=    35.00 Ry     beta= 0.50
     Davidson diagonalization with overlap
     ethr =  1.05E-08,  avg # of iterations =  3.4

     total cpu time spent up to now is        7.0 secs

     total energy              =    -426.15731068 Ry
     estimated scf accuracy    <       0.00000031 Ry

     iteration #  6     ecut=    35.00 Ry     beta= 0.50
     Davidson diagonalization with overlap
     ethr =  1.11E-09,  avg # of iterations =  2.3

     total cpu time spent up to now is        8.0 secs

     End of self-consistent calculation

          k = 0.0000 0.0000 0.0000 (   941 PWs)   bands (ev):

   -15.0352 -15.0352 -15.0352 -14.9865 -14.9865 -14.6867 -14.6867 -14.6867
   -14.6564 -14.6564  -3.8391  10.1299  10.1299  10.1299

          k = 0.0707 0.0707-0.0707 (   923 PWs)   bands (ev):

   -15.0435 -15.0435 -15.0326 -14.9740 -14.9740 -14.6960 -14.6960 -14.6892
   -14.6479 -14.6479  -3.7000   8.3780   9.8489   9.8489

          k = 0.1414 0.1414-0.1414 (   917 PWs)   bands (ev):

   -15.0561 -15.0561 -15.0265 -14.9530 -14.9530 -14.7109 -14.7109 -14.6962
   -14.6364 -14.6364  -3.2890   6.1565   9.3299   9.3299

          k = 0.2121 0.2121-0.2121 (   932 PWs)   bands (ev):

   -15.0644 -15.0644 -15.0198 -14.9366 -14.9366 -14.7218 -14.7218 -14.7055
   -14.6288 -14.6288  -2.6347   4.1309   8.8789   8.8789

          k = 0.2828 0.2828-0.2828 (   932 PWs)   bands (ev):

   -15.0677 -15.0677 -15.0135 -14.9282 -14.9282 -14.7259 -14.7259 -14.7134
   -14.6249 -14.6249  -1.8464   2.4984   8.5910   8.5910

          k =-0.3536-0.3536 0.3536 (   912 PWs)   bands (ev):

   -15.0671 -15.0671 -15.0117 -14.9262 -14.9262 -14.7256 -14.7256 -14.7160
   -14.6238 -14.6238  -1.3811   1.7486   8.4931   8.4931

          k = 0.1414 0.0000 0.0000 (   933 PWs)   bands (ev):

   -15.0451 -15.0400 -15.0400 -14.9780 -14.9616 -14.7206 -14.6780 -14.6780
   -14.6640 -14.6404  -3.6533   8.4741   9.3628   9.3628

          k = 0.2121 0.0707-0.0707 (   925 PWs)   bands (ev):

   -15.0587 -15.0490 -15.0342 -14.9623 -14.9388 -14.7438 -14.6885 -14.6771
   -14.6538 -14.6312  -3.3316   6.7374   8.8047   8.9069

          k = 0.2828 0.1414-0.1414 (   936 PWs)   bands (ev):

   -15.0719 -15.0587 -15.0222 -14.9440 -14.9196 -14.7591 -14.7051 -14.6890
   -14.6404 -14.6202  -2.7531   4.7516   8.3287   8.3887

          k = 0.3536 0.2121-0.2121 (   921 PWs)   bands (ev):

   -15.0793 -15.0650 -15.0075 -14.9290 -14.9112 -14.7607 -14.7192 -14.7050
   -14.6294 -14.6124  -1.9858   3.0086   7.8199   8.1840

          k =-0.2828-0.4243 0.4243 (   928 PWs)   bands (ev):

   -15.0818 -15.0701 -14.9979 -14.9180 -14.9150 -14.7493 -14.7322 -14.7197
   -14.6212 -14.6106  -1.3197   1.8883   7.4783   8.2068

          k =-0.2121-0.3536 0.3536 (   929 PWs)   bands (ev):

   -15.0787 -15.0738 -14.9962 -14.9252 -14.9119 -14.7425 -14.7303 -14.7265
   -14.6165 -14.6154  -1.4914   2.1537   7.3444   8.4469

          k =-0.1414-0.2828 0.2828 (   924 PWs)   bands (ev):

   -15.0736 -15.0709 -15.0047 -14.9363 -14.9145 -14.7458 -14.7291 -14.7043
   -14.6267 -14.6160  -2.2559   3.5524   7.4465   8.8706

          k =-0.0707-0.2121 0.2121 (   929 PWs)   bands (ev):

   -15.0684 -15.0590 -15.0196 -14.9501 -14.9299 -14.7366 -14.7220 -14.6810
   -14.6444 -14.6212  -2.9739   5.3887   7.8203   9.4040

          k = 0.0000-0.1414 0.1414 (   923 PWs)   bands (ev):

   -15.0571 -15.0456 -15.0314 -14.9658 -14.9531 -14.7180 -14.7084 -14.6689
   -14.6593 -14.6323  -3.4697   7.2327   8.6114   9.8566

          k = 0.2828 0.0000 0.0000 (   926 PWs)   bands (ev):

   -15.0518 -15.0518 -15.0508 -14.9529 -14.9129 -14.7786 -14.6857 -14.6561
   -14.6561 -14.6356  -3.0992   6.3938   8.2180   8.2180

          k = 0.3536 0.0707-0.0707 (   933 PWs)   bands (ev):

   -15.0711 -15.0603 -15.0334 -14.9343 -14.8877 -14.8048 -14.7050 -14.6651
   -14.6408 -14.6234  -2.6027   5.0136   7.5479   7.7808

          k = 0.4243 0.1414-0.1414 (   926 PWs)   bands (ev):

   -15.0869 -15.0676 -15.0089 -14.9151 -14.8741 -14.8150 -14.7264 -14.6915
   -14.6264 -14.6054  -1.8843   3.4469   6.7781   7.5705

          k =-0.2121-0.4950 0.4950 (   932 PWs)   bands (ev):

   -15.0968 -15.0744 -14.9865 -14.8976 -14.8792 -14.8051 -14.7474 -14.7170
   -14.6154 -14.5944  -1.1168   2.1752   6.1835   7.6100

          k =-0.1414-0.4243 0.4243 (   931 PWs)   bands (ev):

   -15.0982 -15.0793 -14.9738 -14.8985 -14.8849 -14.7801 -14.7652 -14.7308
   -14.6086 -14.5938  -0.9615   1.9594   5.8545   7.8917

          k =-0.0707-0.3536 0.3536 (   924 PWs)   bands (ev):

   -15.0901 -15.0813 -14.9766 -14.9227 -14.8852 -14.7710 -14.7508 -14.7270
   -14.6066 -14.6043  -1.6432   3.0113   5.8664   8.3761

          k = 0.0000-0.2828 0.2828 (   919 PWs)   bands (ev):

   -15.0776 -15.0751 -14.9971 -14.9390 -14.9030 -14.7593 -14.7358 -14.6994
   -14.6250 -14.6108  -2.4043   4.3707   6.4232   8.9623

          k = 0.4243 0.0000 0.0000 (   926 PWs)   bands (ev):

   -15.0661 -15.0661 -15.0402 -14.9147 -14.8544 -14.8437 -14.7209 -14.6510
   -14.6308 -14.6308  -2.1876   4.3471   7.2998   7.2998

          k = 0.4950 0.0707-0.0707 (   929 PWs)   bands (ev):

   -15.0815 -15.0721 -15.0163 -14.8928 -14.8694 -14.8296 -14.7433 -14.6799
   -14.6190 -14.6099  -1.5326   3.2310   6.5720   7.0424

          k =-0.1414-0.5657 0.5657 (   927 PWs)   bands (ev):

   -15.0981 -15.0778 -14.9846 -14.8729 -14.8709 -14.8220 -14.7679 -14.7146
   -14.6094 -14.5910  -0.7370   2.1361   5.6464   7.0416

          k =-0.0707-0.4950 0.4950 (   933 PWs)   bands (ev):

   -15.1071 -15.0824 -14.9657 -14.8541 -14.8533 -14.8370 -14.7900 -14.7342
   -14.6038 -14.5819  -0.3088   1.6411   5.0382   7.2966

          k =-0.0000-0.4243 0.4243 (   927 PWs)   bands (ev):

   -15.1045 -15.0840 -14.9627 -14.8881 -14.8586 -14.7968 -14.7914 -14.7358
   -14.6024 -14.5865  -0.8750   2.2827   5.0140   7.7731

          k = 0.5657 0.0000 0.0000 (   938 PWs)   bands (ev):

   -15.0769 -15.0769 -15.0122 -14.9095 -14.8680 -14.7935 -14.7658 -14.6863
   -14.6112 -14.6112  -0.9402   2.3927   6.7239   6.7239

          k =-0.0707-0.6364 0.6364 (   940 PWs)   bands (ev):

   -15.0884 -15.0801 -14.9825 -14.9289 -14.8431 -14.7913 -14.7729 -14.7183
   -14.6053 -14.5983  -0.1588   1.4691   6.0831   6.6608

          k = 0.0000-0.5657 0.5657 (   940 PWs)   bands (ev):

   -15.1029 -15.0821 -14.9645 -14.9033 -14.8280 -14.8106 -14.7930 -14.7367
   -14.6030 -14.5849   0.3267   1.0246   5.2471   6.8601

          k =-0.7071 0.0000 0.0000 (   934 PWs)   bands (ev):

   -15.0803 -15.0803 -14.9675 -14.9675 -14.8161 -14.8161 -14.7359 -14.7359
   -14.6038 -14.6038   0.6055   0.6055   6.5285   6.5285

          k = 0.2828 0.1414 0.0000 (   930 PWs)   bands (ev):

   -15.0690 -15.0595 -15.0254 -14.9481 -14.9146 -14.7694 -14.7025 -14.6738
   -14.6471 -14.6218  -2.9233   5.6147   7.4949   8.7891

          k = 0.3536 0.2121-0.0707 (   925 PWs)   bands (ev):

   -15.0801 -15.0713 -15.0046 -14.9319 -14.8945 -14.7849 -14.7175 -14.6994
   -14.6262 -14.6111  -2.2727   4.0501   6.7561   8.3335

          k =-0.2828-0.4243 0.5657 (   923 PWs)   bands (ev):

   -15.0899 -15.0766 -14.9857 -14.9163 -14.8880 -14.7846 -14.7328 -14.7243
   -14.6145 -14.6017  -1.4839   2.5709   6.4406   7.9206

          k =-0.2121-0.3536 0.4950 (   934 PWs)   bands (ev):

   -15.0940 -15.0781 -14.9787 -14.9060 -14.8921 -14.7764 -14.7505 -14.7293
   -14.6114 -14.5978  -1.0102   1.8517   6.3541   7.7613

          k = 0.4243 0.1414-0.0000 (   925 PWs)   bands (ev):

   -15.0777 -15.0742 -15.0149 -14.9152 -14.8618 -14.8312 -14.7242 -14.6831
   -14.6216 -14.6140  -2.0291   3.9715   6.6334   7.4706

          k =-0.2121-0.4950 0.6364 (   926 PWs)   bands (ev):

   -15.0930 -15.0813 -14.9854 -14.8955 -14.8516 -14.8373 -14.7473 -14.7144
   -14.6091 -14.5975  -1.2637   2.7630   5.9118   7.0962

          k =-0.1414-0.4243 0.5657 (   935 PWs)   bands (ev):

   -15.1033 -15.0848 -14.9639 -14.8807 -14.8542 -14.8275 -14.7718 -14.7350
   -14.6034 -14.5866  -0.5860   1.8504   5.4433   7.0301

          k =-0.0707-0.3536 0.4950 (   928 PWs)   bands (ev):

   -15.1024 -15.0860 -14.9603 -14.8908 -14.8566 -14.8146 -14.7724 -14.7381
   -14.6016 -14.5881  -0.7970   2.1254   5.2909   7.3052

          k = 0.0000-0.2828 0.4243 (   922 PWs)   bands (ev):

   -15.0911 -15.0842 -14.9767 -14.9151 -14.8687 -14.8051 -14.7361 -14.7306
   -14.6042 -14.6027  -1.5712   3.1551   5.6474   7.8173

          k =-0.1414-0.5657 0.7071 (   932 PWs)   bands (ev):

   -15.0855 -15.0853 -14.9896 -14.8930 -14.8696 -14.8055 -14.7676 -14.7083
   -14.6031 -14.6026  -0.8177   2.2917   6.1519   6.5390

          k =-0.0707-0.4950 0.6364 (   931 PWs)   bands (ev):

   -15.1010 -15.0881 -14.9567 -14.8932 -14.8480 -14.8011 -14.7937 -14.7409
   -14.5984 -14.5868  -0.0371   1.4441   5.4010   6.4324

          k =-0.0000-0.4243 0.5657 (   926 PWs)   bands (ev):

   -15.1076 -15.0888 -14.9493 -14.8569 -14.8515 -14.8247 -14.8045 -14.7459
   -14.5976 -14.5807  -0.0591   1.4889   4.9519   6.7436

          k =-0.7071 0.1414 0.0000 (   944 PWs)   bands (ev):

   -15.0894 -15.0894 -14.9479 -14.9479 -14.8183 -14.8183 -14.7522 -14.7522
   -14.5968 -14.5968   0.6540   0.6540   6.1059   6.1059

          k =-0.1414-0.4243 0.7071 (   918 PWs)   bands (ev):

   -15.1001 -15.0928 -14.9513 -14.8739 -14.8603 -14.8231 -14.7785 -14.7437
   -14.5947 -14.5885  -0.4867   1.9666   5.3285   6.4535

          k =-0.0707-0.3536 0.6364 (   930 PWs)   bands (ev):

   -15.1054 -15.0953 -14.9340 -14.8703 -14.8527 -14.8193 -14.7992 -14.7570
   -14.5922 -14.5827   0.0496   1.4133   5.1623   6.1718

          k =-0.7071 0.2828 0.0000 (   928 PWs)   bands (ev):

   -15.1003 -15.1003 -14.9113 -14.9113 -14.8266 -14.8266 -14.7781 -14.7781
   -14.5869 -14.5869   0.7378   0.7378   5.5743   5.5743

     highest occupied level (ev):    10.1299

!    total energy              =    -426.15731073 Ry
     estimated scf accuracy    <       0.00000004 Ry

     The total energy is the sum of the following terms:
     one-electron contribution =    -263.57806469 Ry
     hartree contribution      =     159.06790021 Ry
     xc contribution           =    -114.71682405 Ry
     ewald contribution        =    -206.93032220 Ry

     convergence has been achieved in   6 iterations

     Forces acting on atoms (cartesian axes, Ry/au):

     atom    1 type  1   force =    -0.00000000    0.00000000   -0.00000000
     atom    2 type  1   force =     0.00000000   -0.00000000    0.00000000

     Total force =     0.000000     Total SCF correction =     0.000000


     Computing stress (Cartesian axis) and pressure

          total   stress  (Ry/bohr**3)                   (kbar)     P=      102.33
   0.00069563   0.00000000   0.00000000          102.33        0.00        0.00
   0.00000000   0.00069563   0.00000000            0.00      102.33        0.00
   0.00000000   0.00000000   0.00069563            0.00        0.00      102.33

     Message from routine punch:
     Nothing written, as per user request (disk_io='none')

     init_run     :      0.83s CPU      0.95s WALL (       1 calls)
     electrons    :      6.70s CPU      6.89s WALL (       1 calls)
     forces       :      0.07s CPU      0.07s WALL (       1 calls)
     stress       :      0.44s CPU      0.45s WALL (       1 calls)

     Called by init_run:
     wfcinit      :      0.51s CPU      0.57s WALL (       1 calls)
     potinit      :      0.01s CPU      0.02s WALL (       1 calls)
     hinit0       :      0.28s CPU      0.30s WALL (       1 calls)

     Called by electrons:
     c_bands      :      5.46s CPU      5.61s WALL (       7 calls)
     sum_band     :      1.10s CPU      1.14s WALL (       7 calls)
     v_of_rho     :      0.01s CPU      0.01s WALL (       7 calls)
     newd         :      0.14s CPU      0.17s WALL (       7 calls)
     mix_rho      :      0.00s CPU      0.00s WALL (       7 calls)

     Called by c_bands:
     init_us_2    :      0.21s CPU      0.21s WALL (     799 calls)
     cegterg      :      4.99s CPU      5.12s WALL (     329 calls)

     Called by *egterg:
     cdiaghg      :      0.20s CPU      0.20s WALL (    1037 calls)
     h_psi        :      4.61s CPU      4.79s WALL (    1131 calls)
     s_psi        :      0.11s CPU      0.12s WALL (    1131 calls)
     g_psi        :      0.03s CPU      0.03s WALL (     755 calls)

     Called by h_psi:
     h_psi:calbec :      0.15s CPU      0.16s WALL (    1131 calls)
     vloc_psi     :      4.29s CPU      4.45s WALL (    1131 calls)
     add_vuspsi   :      0.12s CPU      0.13s WALL (    1131 calls)

     General routines
     calbec       :      0.28s CPU      0.28s WALL (    2259 calls)
     fft          :      0.14s CPU      0.15s WALL (      37 calls)
     ffts         :      0.00s CPU      0.00s WALL (       7 calls)
     fftw         :      4.25s CPU      4.40s WALL (   29210 calls)

     Parallel routines

     PWSCF        :      8.15s CPU      8.49s WALL


   This run was terminated on:  21:35:40   8Oct2025            

=------------------------------------------------------------------------------=
   JOB DONE.
=------------------------------------------------------------------------------=
