
     Program PWSCF v.7.4.1 starts on 21Oct2025 at  0:44:11 

     This program is part of the open-source Quantum ESPRESSO suite
     for quantum simulation of materials; please cite
         "P. Giannozzi et al., J. Phys.:Condens. Matter 21 395502 (2009);
         "P. Giannozzi et al., J. Phys.:Condens. Matter 29 465901 (2017);
         "P. Giannozzi et al., J. Chem. Phys. 152 154105 (2020);
          URL http://www.quantum-espresso.org", 
     in publications or presentations arising from this work. More details at
     http://www.quantum-espresso.org/quote

     Parallel version (MPI), running on     2 processors

     MPI processes distributed on     1 nodes
     184 MiB available memory on the printing compute node when the environment starts

     Waiting for input...
     Reading input from standard input
Warning: card &CELL ignored
Warning: card / ignored

     Current dimensions of program PWSCF are:
     Max number of different atomic species (ntypx) = 10
     Max number of k-points (npk) =  40000
     Max angular momentum in pseudopotentials (lmaxx) =  4
     file Fe.pbe-nd-rrkjus.UPF: wavefunction(s)  4S renormalized
     Message from routine find_sym:
     Not a group! Trying with lower acceptance parameter...
     Message from routine find_sym:
     Still not a group! symmetry disabled

     R & G space division:  proc/nbgrp/npool/nimage =       2
     Subspace diagonalization in iterative solution of the eigenvalue problem:
     a serial algorithm will be used


     Parallelization info
     --------------------
     sticks:   dense  smooth     PW     G-vecs:    dense   smooth      PW
     Min         351     141     44                13241     3337     619
     Max         352     142     47                13246     3340     620
     Sum         703     283     91                26487     6677    1239

     Using Slab Decomposition



     bravais-lattice index     =            0
     lattice parameter (alat)  =       5.8582  a.u.
     unit-cell volume          =     302.4211 (a.u.)^3
     number of atoms/cell      =            2
     number of atomic types    =            1
     number of electrons       =        16.00
     number of Kohn-Sham states=           12
     kinetic-energy cutoff     =      30.0000  Ry
     charge density cutoff     =     300.0000  Ry
     scf convergence threshold =      1.0E-07
     mixing beta               =       0.5000
     number of iterations used =            8  plain     mixing
     Exchange-correlation=  SLA  PW   PBE  PBE
                           (   1   4   3   4   0   0   0)

     celldm(1)=   5.858151  celldm(2)=   0.000000  celldm(3)=   0.000000
     celldm(4)=   0.000000  celldm(5)=   0.000000  celldm(6)=   0.000000

     crystal axes: (cart. coord. in units of alat)
               a(1) = (   1.000000   0.000000   0.000000 )  
               a(2) = (  -0.500000   0.866025   0.000000 )  
               a(3) = (   0.000000   0.000000   1.737000 )  

     reciprocal axes: (cart. coord. in units 2 pi/alat)
               b(1) = (  1.000000  0.577350 -0.000000 )  
               b(2) = (  0.000000  1.154701  0.000000 )  
               b(3) = (  0.000000 -0.000000  0.575705 )  


     PseudoPot. # 1 for Fe read from file:
     /home/bond/Software/QE/qe-7.4.1/pseudo/Fe.pbe-nd-rrkjus.UPF
     MD5 check sum: 398036227a04b607635f6f5e8dfd8242
     Pseudo is Ultrasoft + core correction, Zval =  8.0
     Generated by new atomic code, or converted to UPF format
     Using radial grid of  957 points,  6 beta functions with: 
                l(1) =   0
                l(2) =   0
                l(3) =   1
                l(4) =   1
                l(5) =   2
                l(6) =   2
     Q(r) pseudized with 0 coefficients 


     atomic species   valence    mass     pseudopotential
     Fe                8.00    55.84500     Fe( 1.00)

     Starting magnetic structure 
     atomic species   magnetization
     Fe              0.700

     No symmetry found



   Cartesian axes

     site n.     atom                  positions (alat units)
         1        Fe     tau(   1) = (   0.0000000   0.0000000   0.0000000  )
         2        Fe     tau(   2) = (   0.0000000   0.5773516   0.8685000  )

     number of k points=   688  Methfessel-Paxton smearing, width (Ry)=  0.0200

     Number of k-points >= 100: set verbosity='high' to print them.

     Dense  grid:    26487 G-vectors     FFT dimensions: (  36,  36,  60)

     Smooth grid:     6677 G-vectors     FFT dimensions: (  24,  24,  36)

     Estimated max dynamical RAM per process >     161.82 MB

     Estimated total dynamical RAM >     323.64 MB

     Check: negative core charge=   -0.000027
     Generating pointlists ...
     new r_m :   0.4125 (alat units)  2.4165 (a.u.) for type    1

     Initial potential from superposition of free atoms

     starting charge      15.9987, renormalised to      16.0000
     Starting wfcs are   12 randomized atomic wfcs

     total cpu time spent up to now is        9.5 secs

     Self-consistent Calculation

     iteration #  1     ecut=    30.00 Ry     beta= 0.50
     Davidson diagonalization with overlap
     ethr =  1.00E-02,  avg # of iterations =  3.6

     total cpu time spent up to now is       36.4 secs

     total energy              =    -111.09878302 Ry
     estimated scf accuracy    <       0.67041846 Ry

     total magnetization       =     7.70 Bohr mag/cell
     absolute magnetization    =     7.71 Bohr mag/cell

     iteration #  2     ecut=    30.00 Ry     beta= 0.50
     Davidson diagonalization with overlap
     ethr =  4.19E-03,  avg # of iterations =  2.7

     total cpu time spent up to now is       62.5 secs

     total energy              =    -111.31658758 Ry
     estimated scf accuracy    <       0.28795571 Ry

     total magnetization       =     6.35 Bohr mag/cell
     absolute magnetization    =     6.38 Bohr mag/cell

     iteration #  3     ecut=    30.00 Ry     beta= 0.50
     Davidson diagonalization with overlap
     ethr =  1.80E-03,  avg # of iterations =  1.7

     total cpu time spent up to now is       81.7 secs

     total energy              =    -111.37380858 Ry
     estimated scf accuracy    <       0.01023323 Ry

     total magnetization       =     6.77 Bohr mag/cell
     absolute magnetization    =     6.85 Bohr mag/cell

     iteration #  4     ecut=    30.00 Ry     beta= 0.50
     Davidson diagonalization with overlap
     ethr =  6.40E-05,  avg # of iterations =  4.3

     total cpu time spent up to now is      111.0 secs

     total energy              =    -111.36855039 Ry
     estimated scf accuracy    <       0.57513058 Ry

     total magnetization       =     6.53 Bohr mag/cell
     absolute magnetization    =     6.81 Bohr mag/cell

     iteration #  5     ecut=    30.00 Ry     beta= 0.50
     Davidson diagonalization with overlap
     ethr =  6.40E-05,  avg # of iterations =  2.1

     total cpu time spent up to now is      130.9 secs

     total energy              =    -111.38556153 Ry
     estimated scf accuracy    <       0.00475842 Ry

     total magnetization       =     6.50 Bohr mag/cell
     absolute magnetization    =     6.81 Bohr mag/cell

     iteration #  6     ecut=    30.00 Ry     beta= 0.50
     Davidson diagonalization with overlap
     ethr =  2.97E-05,  avg # of iterations =  2.8

     total cpu time spent up to now is      155.0 secs

     total energy              =    -111.38862951 Ry
     estimated scf accuracy    <       0.00525977 Ry

     total magnetization       =     6.28 Bohr mag/cell
     absolute magnetization    =     6.72 Bohr mag/cell

     iteration #  7     ecut=    30.00 Ry     beta= 0.50
     Davidson diagonalization with overlap
     ethr =  2.97E-05,  avg # of iterations =  1.1

     total cpu time spent up to now is      173.6 secs

     total energy              =    -111.38914273 Ry
     estimated scf accuracy    <       0.00019137 Ry

     total magnetization       =     6.32 Bohr mag/cell
     absolute magnetization    =     6.78 Bohr mag/cell

     iteration #  8     ecut=    30.00 Ry     beta= 0.50
     Davidson diagonalization with overlap
     ethr =  1.20E-06,  avg # of iterations =  3.8

     total cpu time spent up to now is      206.9 secs

     total energy              =    -111.38938418 Ry
     estimated scf accuracy    <       0.00007758 Ry

     total magnetization       =     6.32 Bohr mag/cell
     absolute magnetization    =     6.81 Bohr mag/cell

     iteration #  9     ecut=    30.00 Ry     beta= 0.50
     Davidson diagonalization with overlap
     ethr =  4.85E-07,  avg # of iterations =  1.3

     total cpu time spent up to now is      235.6 secs

     total energy              =    -111.38939595 Ry
     estimated scf accuracy    <       0.00002801 Ry

     total magnetization       =     6.32 Bohr mag/cell
     absolute magnetization    =     6.80 Bohr mag/cell

     iteration # 10     ecut=    30.00 Ry     beta= 0.50
     Davidson diagonalization with overlap
     ethr =  1.75E-07,  avg # of iterations =  2.5

     total cpu time spent up to now is      265.1 secs

     total energy              =    -111.38940579 Ry
     estimated scf accuracy    <       0.00000899 Ry

     total magnetization       =     6.32 Bohr mag/cell
     absolute magnetization    =     6.80 Bohr mag/cell

     iteration # 11     ecut=    30.00 Ry     beta= 0.50
     Davidson diagonalization with overlap
     ethr =  5.62E-08,  avg # of iterations =  2.9

     total cpu time spent up to now is      292.8 secs

     total energy              =    -111.38941137 Ry
     estimated scf accuracy    <       0.00000019 Ry

     total magnetization       =     6.32 Bohr mag/cell
     absolute magnetization    =     6.80 Bohr mag/cell

     iteration # 12     ecut=    30.00 Ry     beta= 0.50
     Davidson diagonalization with overlap
     ethr =  1.20E-09,  avg # of iterations = 10.9

     total cpu time spent up to now is      369.6 secs

     total energy              =    -111.38941287 Ry
     estimated scf accuracy    <       0.00000010 Ry

     total magnetization       =     6.32 Bohr mag/cell
     absolute magnetization    =     6.80 Bohr mag/cell

     iteration # 13     ecut=    30.00 Ry     beta= 0.50
     Davidson diagonalization with overlap
     ethr =  6.29E-10,  avg # of iterations =  2.4

     total cpu time spent up to now is      401.7 secs

     total energy              =    -111.38941296 Ry
     estimated scf accuracy    <       0.00000018 Ry

     total magnetization       =     6.32 Bohr mag/cell
     absolute magnetization    =     6.80 Bohr mag/cell

     iteration # 14     ecut=    30.00 Ry     beta= 0.50
     Davidson diagonalization with overlap
     ethr =  6.29E-10,  avg # of iterations =  3.1

     Magnetic moment per site  (integrated on atomic sphere of radius R)
     atom   1 (R=0.412)  charge=  6.9052  magn=  3.2718
     atom   2 (R=0.412)  charge=  6.9054  magn=  3.2716

     total cpu time spent up to now is      428.6 secs

     End of self-consistent calculation

     Number of k-points >= 100: set verbosity='high' to print the bands.

     the Fermi energy is     5.6557 ev

!    total energy              =    -111.38941300 Ry
     estimated scf accuracy    <       0.00000006 Ry
     smearing contrib. (-TS)   =      -0.00074825 Ry
     internal energy E=F+TS    =    -111.38866475 Ry

     The total energy is F=E-TS. E is the sum of the following terms:
     one-electron contribution =     -10.40635097 Ry
     hartree contribution      =      20.90124847 Ry
     xc contribution           =     -52.53019592 Ry
     ewald contribution        =     -69.35336633 Ry

     total magnetization       =     6.32 Bohr mag/cell
     absolute magnetization    =     6.80 Bohr mag/cell

     convergence has been achieved in  14 iterations

     Forces acting on atoms (cartesian axes, Ry/au):

     atom    1 type  1   force =    -0.00000103    0.00000118    0.00000932
     atom    2 type  1   force =     0.00000103   -0.00000118   -0.00000932

     Total force =     0.000013     Total SCF correction =     0.000019
     SCF correction compared to forces is large: reduce conv_thr to get better values


     Computing stress (Cartesian axis) and pressure

          total   stress  (Ry/bohr**3)                   (kbar)     P=     -234.64
  -0.00164687   0.00000000  -0.00000000         -242.26        0.00       -0.00
   0.00000000  -0.00164687   0.00000000            0.00     -242.26        0.00
  -0.00000000   0.00000000  -0.00149151           -0.00        0.00     -219.41

     Message from routine punch:
     Nothing written, as per user request (disk_io='none')

     init_run     :      8.49s CPU      9.33s WALL (       1 calls)
     electrons    :    379.23s CPU    419.00s WALL (       1 calls)
     forces       :      1.21s CPU      1.29s WALL (       1 calls)
     stress       :      6.57s CPU      6.79s WALL (       1 calls)

     Called by init_run:
     wfcinit      :      7.68s CPU      8.44s WALL (       1 calls)
     potinit      :      0.25s CPU      0.26s WALL (       1 calls)
     hinit0       :      0.42s CPU      0.43s WALL (       1 calls)

     Called by electrons:
     c_bands      :    328.63s CPU    359.40s WALL (      14 calls)
     sum_band     :     48.57s CPU     56.26s WALL (      14 calls)
     v_of_rho     :      0.90s CPU      1.09s WALL (      15 calls)
     newd         :      1.10s CPU      1.86s WALL (      15 calls)
     mix_rho      :      0.08s CPU      0.20s WALL (      14 calls)

     Called by c_bands:
     init_us_2    :      7.72s CPU      8.56s WALL (   42656 calls)
     cegterg      :    309.22s CPU    338.06s WALL (   19264 calls)

     Called by *egterg:
     cdiaghg      :     17.61s CPU     19.22s WALL (   81285 calls)
     h_psi        :    265.67s CPU    290.37s WALL (   82661 calls)
     s_psi        :      4.44s CPU      4.82s WALL (   82661 calls)
     g_psi        :      1.10s CPU      1.19s WALL (   62021 calls)

     Called by h_psi:
     h_psi:calbec :     10.69s CPU     11.71s WALL (   82661 calls)
     vloc_psi     :    247.84s CPU    270.88s WALL (   82661 calls)
     add_vuspsi   :      5.30s CPU      5.80s WALL (   82661 calls)

     General routines
     calbec       :     16.08s CPU     17.66s WALL (  125317 calls)
     fft          :      0.63s CPU      0.81s WALL (     413 calls)
     ffts         :      0.19s CPU      0.20s WALL (      58 calls)
     fftw         :    241.00s CPU    265.50s WALL ( 1644266 calls)
     interpolate  :      0.20s CPU      0.21s WALL (      30 calls)

     Parallel routines

     PWSCF        :   6m35.72s CPU   7m16.67s WALL


   This run was terminated on:   0:51:28  21Oct2025            

=------------------------------------------------------------------------------=
   JOB DONE.
=------------------------------------------------------------------------------=
