LAMMPS (22 Jul 2025 - Update 1)
Reading data file ...
  orthogonal box = (0 0 0) to (8.7451919 8.7451919 56.735138)
  1 by 1 by 1 MPI processor grid
  reading atoms ...
  117 atoms
  read_data CPU = 0.001 seconds
WARNING: No fixes with time integration, atoms won't move
For more information see https://docs.lammps.org/err0028 (../verlet.cpp:60)
Generated 0 of 0 mixed pair_coeff terms from geometric mixing rule
Neighbor list info ...
  update: every = 1 steps, delay = 0 steps, check = yes
  max neighbors/atom: 2000, page size: 100000
  master list distance cutoff = 6.5
  ghost atom cutoff = 6.5
  binsize = 3.25, bins = 3 3 18
  1 neighbor lists, perpetual/occasional/extra = 1 0 0
  (1) pair lj/cut, perpetual
      attributes: half, newton on
      pair build: half/bin/atomonly/newton
      stencil: half/bin/3d
      bin: standard
Setting up Verlet run ...
  Unit style    : metal
  Current step  : 0
  Time step     : 0.001
Per MPI rank memory allocation (min/avg/max) = 3.079 | 3.079 | 3.079 Mbytes
   Step         PotEng           Lx             Ly             Lz           Press           Pxx            Pyy            Pzz      
         0  -292.44111      8.7451919      8.7451919      56.735138     -0.062892527   -894.35932     -894.35932      1788.53      
Loop time of 1.291e-06 on 1 procs for 0 steps with 117 atoms

154.9% CPU use with 1 MPI tasks x no OpenMP threads

MPI task timing breakdown:
Section |  min time  |  avg time  |  max time  |%varavg| %total
---------------------------------------------------------------
Pair    | 0          | 0          | 0          |   0.0 |  0.00
Neigh   | 0          | 0          | 0          |   0.0 |  0.00
Comm    | 0          | 0          | 0          |   0.0 |  0.00
Output  | 0          | 0          | 0          |   0.0 |  0.00
Modify  | 0          | 0          | 0          |   0.0 |  0.00
Other   |            | 1.291e-06  |            |       |100.00

Nlocal:            117 ave         117 max         117 min
Histogram: 1 0 0 0 0 0 0 0 0 0
Nghost:            625 ave         625 max         625 min
Histogram: 1 0 0 0 0 0 0 0 0 0
Neighs:           2889 ave        2889 max        2889 min
Histogram: 1 0 0 0 0 0 0 0 0 0

Total # of neighbors = 2889
Ave neighs/atom = 24.692308
Neighbor list builds = 0
Dangerous builds = 0
Generated 0 of 0 mixed pair_coeff terms from geometric mixing rule
Setting up cg style minimization ...
  Unit style    : metal
  Current step  : 0
WARNING: Energy due to 3 extra global DOFs will be included in minimizer energies
 (../min.cpp:222)
Per MPI rank memory allocation (min/avg/max) = 4.204 | 4.204 | 4.204 Mbytes
   Step         PotEng           Lx             Ly             Lz           Press           Pxx            Pyy            Pzz      
         0  -292.44111      8.7451919      8.7451919      56.735138     -0.062892527   -894.35932     -894.35932      1788.53      
        80  -292.46944      8.7324899      8.7324899      56.735138      37.831881      1.1656278      1.1656278      111.16439    
Loop time of 0.00838484 on 1 procs for 80 steps with 117 atoms

99.4% CPU use with 1 MPI tasks x no OpenMP threads

Minimization stats:
  Stopping criterion = energy tolerance
  Energy initial, next-to-last, final = 
     -292.441112718569  -292.469438221957  -292.469438240568
  Force two-norm initial, final = 3.513803 0.0079066715
  Force max component initial, final = 2.4221023 0.0031521662
  Final line search alpha, max atom move = 0.35698852 0.0011252871
  Iterations, force evaluations = 80 160

MPI task timing breakdown:
Section |  min time  |  avg time  |  max time  |%varavg| %total
---------------------------------------------------------------
Pair    | 0.0057253  | 0.0057253  | 0.0057253  |   0.0 | 68.28
Neigh   | 0          | 0          | 0          |   0.0 |  0.00
Comm    | 0.00043996 | 0.00043996 | 0.00043996 |   0.0 |  5.25
Output  | 0          | 0          | 0          |   0.0 |  0.00
Modify  | 0          | 0          | 0          |   0.0 |  0.00
Other   |            | 0.00222    |            |       | 26.47

Nlocal:            117 ave         117 max         117 min
Histogram: 1 0 0 0 0 0 0 0 0 0
Nghost:            625 ave         625 max         625 min
Histogram: 1 0 0 0 0 0 0 0 0 0
Neighs:           2889 ave        2889 max        2889 min
Histogram: 1 0 0 0 0 0 0 0 0 0

Total # of neighbors = 2889
Ave neighs/atom = 24.692308
Neighbor list builds = 0
Dangerous builds = 0
Total energy (eV) = -292.469438240568
Number of atoms = 117
Lattice constant (Angstoms) = 8.73248985855734
Total wall time: 0:00:00
