
     Program PWSCF v.7.4.1 starts on 20Oct2025 at 23:15:18 

     This program is part of the open-source Quantum ESPRESSO suite
     for quantum simulation of materials; please cite
         "P. Giannozzi et al., J. Phys.:Condens. Matter 21 395502 (2009);
         "P. Giannozzi et al., J. Phys.:Condens. Matter 29 465901 (2017);
         "P. Giannozzi et al., J. Chem. Phys. 152 154105 (2020);
          URL http://www.quantum-espresso.org", 
     in publications or presentations arising from this work. More details at
     http://www.quantum-espresso.org/quote

     Parallel version (MPI), running on     2 processors

     MPI processes distributed on     1 nodes
     198 MiB available memory on the printing compute node when the environment starts

     Waiting for input...
     Reading input from standard input
Warning: card &CELL ignored
Warning: card / ignored

     Current dimensions of program PWSCF are:
     Max number of different atomic species (ntypx) = 10
     Max number of k-points (npk) =  40000
     Max angular momentum in pseudopotentials (lmaxx) =  4
     file Fe.pbe-nd-rrkjus.UPF: wavefunction(s)  4S renormalized
     Message from routine setup:
     using ibrav=0 with symmetry is DISCOURAGED, use correct ibrav instead

     R & G space division:  proc/nbgrp/npool/nimage =       2
     Subspace diagonalization in iterative solution of the eigenvalue problem:
     a serial algorithm will be used


     Parallelization info
     --------------------
     sticks:   dense  smooth     PW     G-vecs:    dense   smooth      PW
     Min         218      86     45                 2887      739     265
     Max         219      87     46                 2888      742     266
     Sum         437     173     91                 5775     1481     531

     Using Slab Decomposition



     bravais-lattice index     =            0
     lattice parameter (alat)  =       4.4187  a.u.
     unit-cell volume          =      66.4137 (a.u.)^3
     number of atoms/cell      =            1
     number of atomic types    =            1
     number of electrons       =         8.00
     number of Kohn-Sham states=            8
     kinetic-energy cutoff     =      30.0000  Ry
     charge density cutoff     =     300.0000  Ry
     scf convergence threshold =      1.0E-07
     mixing beta               =       0.5000
     number of iterations used =            8  plain     mixing
     Exchange-correlation=  SLA  PW   PBE  PBE
                           (   1   4   3   4   0   0   0)

     celldm(1)=   4.418687  celldm(2)=   0.000000  celldm(3)=   0.000000
     celldm(4)=   0.000000  celldm(5)=   0.000000  celldm(6)=   0.000000

     crystal axes: (cart. coord. in units of alat)
               a(1) = (  -0.577350   0.577350   0.577350 )  
               a(2) = (   0.577350  -0.577350   0.577350 )  
               a(3) = (   0.577350   0.577350  -0.577350 )  

     reciprocal axes: (cart. coord. in units 2 pi/alat)
               b(1) = (  0.000000  0.866025  0.866025 )  
               b(2) = (  0.866025  0.000000  0.866025 )  
               b(3) = (  0.866025  0.866025  0.000000 )  


     PseudoPot. # 1 for Fe read from file:
     /home/bond/Software/QE/qe-7.4.1/pseudo/Fe.pbe-nd-rrkjus.UPF
     MD5 check sum: 398036227a04b607635f6f5e8dfd8242
     Pseudo is Ultrasoft + core correction, Zval =  8.0
     Generated by new atomic code, or converted to UPF format
     Using radial grid of  957 points,  6 beta functions with: 
                l(1) =   0
                l(2) =   0
                l(3) =   1
                l(4) =   1
                l(5) =   2
                l(6) =   2
     Q(r) pseudized with 0 coefficients 


     atomic species   valence    mass     pseudopotential
     Fe                8.00    55.84500     Fe( 1.00)

     Starting magnetic structure 
     atomic species   magnetization
     Fe              0.700

     48 Sym. Ops., with inversion, found



   Cartesian axes

     site n.     atom                  positions (alat units)
         1        Fe     tau(   1) = (   0.0000000   0.0000000   0.0000000  )

     number of k points=   104  Methfessel-Paxton smearing, width (Ry)=  0.0200

     Number of k-points >= 100: set verbosity='high' to print them.

     Dense  grid:     5775 G-vectors     FFT dimensions: (  25,  25,  25)

     Smooth grid:     1481 G-vectors     FFT dimensions: (  15,  15,  15)

     Estimated max dynamical RAM per process >      15.62 MB

     Estimated total dynamical RAM >      31.24 MB

     Check: negative core charge=   -0.000001
     Generating pointlists ...
     new r_m :   0.4125 (alat units)  1.8227 (a.u.) for type    1

     Initial potential from superposition of free atoms

     starting charge       7.9994, renormalised to       8.0000
     Starting wfcs are    6 randomized atomic wfcs +    2 random wfcs

     total cpu time spent up to now is        0.8 secs

     Self-consistent Calculation

     iteration #  1     ecut=    30.00 Ry     beta= 0.50
     Davidson diagonalization with overlap
     ethr =  1.00E-02,  avg # of iterations =  4.5

     total cpu time spent up to now is        1.8 secs

     total energy              =     -55.66785457 Ry
     estimated scf accuracy    <       0.29676976 Ry

     total magnetization       =     2.86 Bohr mag/cell
     absolute magnetization    =     2.86 Bohr mag/cell

     iteration #  2     ecut=    30.00 Ry     beta= 0.50
     Davidson diagonalization with overlap
     ethr =  3.71E-03,  avg # of iterations =  1.6

     total cpu time spent up to now is        2.4 secs

     total energy              =     -55.75735685 Ry
     estimated scf accuracy    <       0.03524050 Ry

     total magnetization       =     2.64 Bohr mag/cell
     absolute magnetization    =     2.64 Bohr mag/cell

     iteration #  3     ecut=    30.00 Ry     beta= 0.50
     Davidson diagonalization with overlap
     ethr =  4.41E-04,  avg # of iterations =  1.3

     total cpu time spent up to now is        2.9 secs

     total energy              =     -55.77965855 Ry
     estimated scf accuracy    <       0.01102365 Ry

     total magnetization       =     2.48 Bohr mag/cell
     absolute magnetization    =     2.51 Bohr mag/cell

     iteration #  4     ecut=    30.00 Ry     beta= 0.50
     Davidson diagonalization with overlap
     ethr =  1.38E-04,  avg # of iterations =  1.4

     total cpu time spent up to now is        3.4 secs

     total energy              =     -55.78757036 Ry
     estimated scf accuracy    <       0.00053917 Ry

     total magnetization       =     2.16 Bohr mag/cell
     absolute magnetization    =     2.26 Bohr mag/cell

     iteration #  5     ecut=    30.00 Ry     beta= 0.50
     Davidson diagonalization with overlap
     ethr =  6.74E-06,  avg # of iterations =  5.7

     total cpu time spent up to now is        4.2 secs

     total energy              =     -55.78770540 Ry
     estimated scf accuracy    <       0.00040838 Ry

     total magnetization       =     2.15 Bohr mag/cell
     absolute magnetization    =     2.26 Bohr mag/cell

     iteration #  6     ecut=    30.00 Ry     beta= 0.50
     Davidson diagonalization with overlap
     ethr =  5.10E-06,  avg # of iterations =  1.8

     total cpu time spent up to now is        4.7 secs

     total energy              =     -55.78817258 Ry
     estimated scf accuracy    <       0.00010857 Ry

     total magnetization       =     2.11 Bohr mag/cell
     absolute magnetization    =     2.21 Bohr mag/cell

     iteration #  7     ecut=    30.00 Ry     beta= 0.50
     Davidson diagonalization with overlap
     ethr =  1.36E-06,  avg # of iterations =  1.5

     total cpu time spent up to now is        5.2 secs

     total energy              =     -55.78820495 Ry
     estimated scf accuracy    <       0.00001805 Ry

     total magnetization       =     2.12 Bohr mag/cell
     absolute magnetization    =     2.22 Bohr mag/cell

     iteration #  8     ecut=    30.00 Ry     beta= 0.50
     Davidson diagonalization with overlap
     ethr =  2.26E-07,  avg # of iterations =  3.2

     total cpu time spent up to now is        5.7 secs

     total energy              =     -55.78821393 Ry
     estimated scf accuracy    <       0.00000240 Ry

     total magnetization       =     2.13 Bohr mag/cell
     absolute magnetization    =     2.22 Bohr mag/cell

     iteration #  9     ecut=    30.00 Ry     beta= 0.50
     Davidson diagonalization with overlap
     ethr =  3.00E-08,  avg # of iterations =  3.3

     total cpu time spent up to now is        6.3 secs

     total energy              =     -55.78821526 Ry
     estimated scf accuracy    <       0.00000231 Ry

     total magnetization       =     2.13 Bohr mag/cell
     absolute magnetization    =     2.22 Bohr mag/cell

     iteration # 10     ecut=    30.00 Ry     beta= 0.50
     Davidson diagonalization with overlap
     ethr =  2.88E-08,  avg # of iterations =  1.0

     total cpu time spent up to now is        6.7 secs

     total energy              =     -55.78821598 Ry
     estimated scf accuracy    <       0.00000211 Ry

     total magnetization       =     2.13 Bohr mag/cell
     absolute magnetization    =     2.22 Bohr mag/cell

     iteration # 11     ecut=    30.00 Ry     beta= 0.50
     Davidson diagonalization with overlap
     ethr =  2.63E-08,  avg # of iterations =  1.9

     Magnetic moment per site  (integrated on atomic sphere of radius R)
     atom   1 (R=0.413)  charge=  6.3582  magn=  2.1503

     total cpu time spent up to now is        7.2 secs

     End of self-consistent calculation

     Number of k-points >= 100: set verbosity='high' to print the bands.

     the Fermi energy is    16.3664 ev

!    total energy              =     -55.78821772 Ry
     estimated scf accuracy    <       0.00000006 Ry
     smearing contrib. (-TS)   =      -0.00001277 Ry
     internal energy E=F+TS    =     -55.78820495 Ry

     The total energy is F=E-TS. E is the sum of the following terms:
     one-electron contribution =      10.66040694 Ry
     hartree contribution      =       5.75018774 Ry
     xc contribution           =     -26.55022110 Ry
     ewald contribution        =     -45.64857853 Ry

     total magnetization       =     2.12 Bohr mag/cell
     absolute magnetization    =     2.21 Bohr mag/cell

     convergence has been achieved in  11 iterations

     Forces acting on atoms (cartesian axes, Ry/au):

     atom    1 type  1   force =     0.00000000    0.00000000    0.00000000

     Total force =     0.000000     Total SCF correction =     0.000000


     Computing stress (Cartesian axis) and pressure

          total   stress  (Ry/bohr**3)                   (kbar)     P=      422.29
   0.00287069   0.00000000   0.00000000          422.29        0.00        0.00
   0.00000000   0.00287069   0.00000000            0.00      422.29        0.00
   0.00000000   0.00000000   0.00287069            0.00        0.00      422.29

     Message from routine punch:
     Nothing written, as per user request (disk_io='none')

     init_run     :      0.49s CPU      0.60s WALL (       1 calls)
     electrons    :      5.73s CPU      6.42s WALL (       1 calls)
     forces       :      0.05s CPU      0.05s WALL (       1 calls)
     stress       :      0.29s CPU      0.29s WALL (       1 calls)

     Called by init_run:
     wfcinit      :      0.17s CPU      0.22s WALL (       1 calls)
     potinit      :      0.04s CPU      0.05s WALL (       1 calls)
     hinit0       :      0.25s CPU      0.28s WALL (       1 calls)

     Called by electrons:
     c_bands      :      4.59s CPU      5.19s WALL (      11 calls)
     sum_band     :      0.87s CPU      0.95s WALL (      11 calls)
     v_of_rho     :      0.12s CPU      0.13s WALL (      12 calls)
     newd         :      0.16s CPU      0.17s WALL (      12 calls)
     mix_rho      :      0.01s CPU      0.01s WALL (      11 calls)

     Called by c_bands:
     init_us_2    :      0.18s CPU      0.20s WALL (    5200 calls)
     cegterg      :      4.20s CPU      4.74s WALL (    2288 calls)

     Called by *egterg:
     cdiaghg      :      0.68s CPU      0.79s WALL (    7939 calls)
     h_psi        :      2.95s CPU      3.33s WALL (    8147 calls)
     s_psi        :      0.06s CPU      0.07s WALL (    8147 calls)
     g_psi        :      0.02s CPU      0.02s WALL (    5651 calls)

     Called by h_psi:
     h_psi:calbec :      0.20s CPU      0.23s WALL (    8147 calls)
     vloc_psi     :      2.59s CPU      2.92s WALL (    8147 calls)
     add_vuspsi   :      0.07s CPU      0.08s WALL (    8147 calls)

     General routines
     calbec       :      0.28s CPU      0.32s WALL (   13971 calls)
     fft          :      0.09s CPU      0.12s WALL (     338 calls)
     ffts         :      0.02s CPU      0.02s WALL (      46 calls)
     fftw         :      2.40s CPU      2.70s WALL (  109854 calls)
     interpolate  :      0.02s CPU      0.02s WALL (      24 calls)

     Parallel routines

     PWSCF        :      6.72s CPU      7.58s WALL


   This run was terminated on:  23:15:25  20Oct2025            

=------------------------------------------------------------------------------=
   JOB DONE.
=------------------------------------------------------------------------------=
