LAMMPS (22 Jul 2025 - Update 1)
Reading data file ...
  orthogonal box = (0 0 0) to (8.1633098 8.1633098 8.1633098)
  1 by 1 by 1 MPI processor grid
  reading atoms ...
  31 atoms
  read_data CPU = 0.001 seconds
Reading eam/alloy potential file /home/bond/Software/LAMMPS/lammps-22Jul2025/potentials/Al_zhou.eam.alloy with DATE: 2007-10-12
WARNING: No fixes with time integration, atoms won't move
For more information see https://docs.lammps.org/err0028 (../verlet.cpp:60)
Neighbor list info ...
  update: every = 1 steps, delay = 0 steps, check = yes
  max neighbors/atom: 2000, page size: 100000
  master list distance cutoff = 12.1025
  ghost atom cutoff = 12.1025
  binsize = 6.05125, bins = 2 2 2
  1 neighbor lists, perpetual/occasional/extra = 1 0 0
  (1) pair eam/alloy, perpetual
      attributes: half, newton on
      pair build: half/bin/atomonly/newton
      stencil: half/bin/3d
      bin: standard
Setting up Verlet run ...
  Unit style    : metal
  Current step  : 0
  Time step     : 0.001
Per MPI rank memory allocation (min/avg/max) = 3.262 | 3.262 | 3.262 Mbytes
   Step         PotEng           Lx             Ly             Lz           Press           Pxx            Pyy            Pzz      
         0  -110.17137      8.1633098      8.1633098      8.1633098     -8891.5904     -8891.5951     -8891.5808     -8891.5951    
Loop time of 2.064e-06 on 1 procs for 0 steps with 31 atoms

339.1% CPU use with 1 MPI tasks x no OpenMP threads

MPI task timing breakdown:
Section |  min time  |  avg time  |  max time  |%varavg| %total
---------------------------------------------------------------
Pair    | 0          | 0          | 0          |   0.0 |  0.00
Neigh   | 0          | 0          | 0          |   0.0 |  0.00
Comm    | 0          | 0          | 0          |   0.0 |  0.00
Output  | 0          | 0          | 0          |   0.0 |  0.00
Modify  | 0          | 0          | 0          |   0.0 |  0.00
Other   |            | 2.064e-06  |            |       |100.00

Nlocal:             31 ave          31 max          31 min
Histogram: 1 0 0 0 0 0 0 0 0 0
Nghost:           1592 ave        1592 max        1592 min
Histogram: 1 0 0 0 0 0 0 0 0 0
Neighs:           6429 ave        6429 max        6429 min
Histogram: 1 0 0 0 0 0 0 0 0 0

Total # of neighbors = 6429
Ave neighs/atom = 207.3871
Neighbor list builds = 0
Dangerous builds = 0
Total energy (eV) = -110.171371548893
Number of atoms = 31
Lattice constant (Angstoms) = 8.16330980972694
Total wall time: 0:00:00
