LAMMPS (22 Jul 2025 - Update 1)
Reading data file ...
  orthogonal box = (0 0 0) to (44.898204 44.898204 44.898204)
  1 by 1 by 1 MPI processor grid
  reading atoms ...
  5323 atoms
  read_data CPU = 0.017 seconds
Reading eam/alloy potential file /home/bond/Software/LAMMPS/lammps-22Jul2025/potentials/Al_zhou.eam.alloy with DATE: 2007-10-12
WARNING: No fixes with time integration, atoms won't move
For more information see https://docs.lammps.org/err0028 (../verlet.cpp:60)
Neighbor list info ...
  update: every = 1 steps, delay = 0 steps, check = yes
  max neighbors/atom: 2000, page size: 100000
  master list distance cutoff = 12.1025
  ghost atom cutoff = 12.1025
  binsize = 6.05125, bins = 8 8 8
  1 neighbor lists, perpetual/occasional/extra = 1 0 0
  (1) pair eam/alloy, perpetual
      attributes: half, newton on
      pair build: half/bin/atomonly/newton
      stencil: half/bin/3d
      bin: standard
Setting up Verlet run ...
  Unit style    : metal
  Current step  : 0
  Time step     : 0.001
Per MPI rank memory allocation (min/avg/max) = 10.61 | 10.61 | 10.61 Mbytes
   Step         PotEng           Lx             Ly             Lz           Press           Pxx            Pyy            Pzz      
         0  -19055.526      44.898204      44.898204      44.898204     -53.481693     -53.481707     -53.481664     -53.481707    
Loop time of 2.127e-06 on 1 procs for 0 steps with 5323 atoms

188.1% CPU use with 1 MPI tasks x no OpenMP threads

MPI task timing breakdown:
Section |  min time  |  avg time  |  max time  |%varavg| %total
---------------------------------------------------------------
Pair    | 0          | 0          | 0          |   0.0 |  0.00
Neigh   | 0          | 0          | 0          |   0.0 |  0.00
Comm    | 0          | 0          | 0          |   0.0 |  0.00
Output  | 0          | 0          | 0          |   0.0 |  0.00
Modify  | 0          | 0          | 0          |   0.0 |  0.00
Other   |            | 2.127e-06  |            |       |100.00

Nlocal:           5323 ave        5323 max        5323 min
Histogram: 1 0 0 0 0 0 0 0 0 0
Nghost:          12637 ave       12637 max       12637 min
Histogram: 1 0 0 0 0 0 0 0 0 0
Neighs:    1.13891e+06 ave 1.13891e+06 max 1.13891e+06 min
Histogram: 1 0 0 0 0 0 0 0 0 0

Total # of neighbors = 1138908
Ave neighs/atom = 213.9598
Neighbor list builds = 0
Dangerous builds = 0
Setting up cg style minimization ...
  Unit style    : metal
  Current step  : 0
WARNING: Energy due to 1 extra global DOFs will be included in minimizer energies
 (../min.cpp:222)
Per MPI rank memory allocation (min/avg/max) = 12.86 | 12.86 | 12.86 Mbytes
   Step         PotEng           Lx             Ly             Lz           Press           Pxx            Pyy            Pzz      
         0  -19055.526      44.898204      44.898204      44.898204     -53.481693     -53.481707     -53.481664     -53.481707    
         7  -19055.603      44.897235      44.897235      44.897235     -1.6992167     -1.6992244     -1.6992014     -1.6992244    
Loop time of 0.790841 on 1 procs for 7 steps with 5323 atoms

100.0% CPU use with 1 MPI tasks x no OpenMP threads

Minimization stats:
  Stopping criterion = energy tolerance
  Energy initial, next-to-last, final = 
     -19055.5258330419  -19055.6033304019  -19055.6033307213
  Force two-norm initial, final = 9.097469 0.400906
  Force max component initial, final = 9.0636463 0.28795713
  Final line search alpha, max atom move = 0.0035853045 0.001032414
  Iterations, force evaluations = 7 14

MPI task timing breakdown:
Section |  min time  |  avg time  |  max time  |%varavg| %total
---------------------------------------------------------------
Pair    | 0.78285    | 0.78285    | 0.78285    |   0.0 | 98.99
Neigh   | 0          | 0          | 0          |   0.0 |  0.00
Comm    | 0.0012278  | 0.0012278  | 0.0012278  |   0.0 |  0.16
Output  | 0          | 0          | 0          |   0.0 |  0.00
Modify  | 0          | 0          | 0          |   0.0 |  0.00
Other   |            | 0.006761   |            |       |  0.85

Nlocal:           5323 ave        5323 max        5323 min
Histogram: 1 0 0 0 0 0 0 0 0 0
Nghost:          12637 ave       12637 max       12637 min
Histogram: 1 0 0 0 0 0 0 0 0 0
Neighs:    1.13891e+06 ave 1.13891e+06 max 1.13891e+06 min
Histogram: 1 0 0 0 0 0 0 0 0 0

Total # of neighbors = 1138908
Ave neighs/atom = 213.9598
Neighbor list builds = 0
Dangerous builds = 0
Total energy (eV) = -19055.6033307213
Number of atoms = 5323
Lattice constant (Angstoms) = 44.8972354265214
Total wall time: 0:00:01
