LAMMPS (22 Jul 2025 - Update 1)
Reading data file ...
  orthogonal box = (0 0 0) to (8.7451919 8.7451919 20.245046)
  1 by 1 by 1 MPI processor grid
  reading atoms ...
  45 atoms
  read_data CPU = 0.001 seconds
WARNING: No fixes with time integration, atoms won't move
For more information see https://docs.lammps.org/err0028 (../verlet.cpp:60)
Generated 0 of 0 mixed pair_coeff terms from geometric mixing rule
Neighbor list info ...
  update: every = 1 steps, delay = 0 steps, check = yes
  max neighbors/atom: 2000, page size: 100000
  master list distance cutoff = 6.5
  ghost atom cutoff = 6.5
  binsize = 3.25, bins = 3 3 7
  1 neighbor lists, perpetual/occasional/extra = 1 0 0
  (1) pair lj/cut, perpetual
      attributes: half, newton on
      pair build: half/bin/atomonly/newton
      stencil: half/bin/3d
      bin: standard
Setting up Verlet run ...
  Unit style    : metal
  Current step  : 0
  Time step     : 0.001
Per MPI rank memory allocation (min/avg/max) = 3.054 | 3.054 | 3.054 Mbytes
   Step         PotEng           Lx             Ly             Lz           Press           Pxx            Pyy            Pzz      
         0  -102.74959      8.7451919      8.7451919      20.245046     -0.39265389    -2506.5269     -2506.5269      5011.8758    
Loop time of 1.442e-06 on 1 procs for 0 steps with 45 atoms

69.3% CPU use with 1 MPI tasks x no OpenMP threads

MPI task timing breakdown:
Section |  min time  |  avg time  |  max time  |%varavg| %total
---------------------------------------------------------------
Pair    | 0          | 0          | 0          |   0.0 |  0.00
Neigh   | 0          | 0          | 0          |   0.0 |  0.00
Comm    | 0          | 0          | 0          |   0.0 |  0.00
Output  | 0          | 0          | 0          |   0.0 |  0.00
Modify  | 0          | 0          | 0          |   0.0 |  0.00
Other   |            | 1.442e-06  |            |       |100.00

Nlocal:             45 ave          45 max          45 min
Histogram: 1 0 0 0 0 0 0 0 0 0
Nghost:            245 ave         245 max         245 min
Histogram: 1 0 0 0 0 0 0 0 0 0
Neighs:            945 ave         945 max         945 min
Histogram: 1 0 0 0 0 0 0 0 0 0

Total # of neighbors = 945
Ave neighs/atom = 21
Neighbor list builds = 0
Dangerous builds = 0
Generated 0 of 0 mixed pair_coeff terms from geometric mixing rule
Setting up cg style minimization ...
  Unit style    : metal
  Current step  : 0
WARNING: Energy due to 3 extra global DOFs will be included in minimizer energies
 (../min.cpp:222)
Per MPI rank memory allocation (min/avg/max) = 4.179 | 4.179 | 4.179 Mbytes
   Step         PotEng           Lx             Ly             Lz           Press           Pxx            Pyy            Pzz      
         0  -102.74959      8.7451919      8.7451919      20.245046     -0.39265389    -2506.5269     -2506.5269      5011.8758    
        22  -102.78924      8.7127463      8.7127463      20.245046      10.061017      0.54944643     0.54944643     29.084158    
Loop time of 0.000896119 on 1 procs for 22 steps with 45 atoms

100.0% CPU use with 1 MPI tasks x no OpenMP threads

Minimization stats:
  Stopping criterion = energy tolerance
  Energy initial, next-to-last, final = 
      -102.74958959639  -102.789244079865  -102.789244082542
  Force two-norm initial, final = 3.5139598 0.0016126625
  Force max component initial, final = 2.4222528 0.00052900306
  Final line search alpha, max atom move = 0.57563727 0.00030451387
  Iterations, force evaluations = 22 42

MPI task timing breakdown:
Section |  min time  |  avg time  |  max time  |%varavg| %total
---------------------------------------------------------------
Pair    | 0.00056547 | 0.00056547 | 0.00056547 |   0.0 | 63.10
Neigh   | 0          | 0          | 0          |   0.0 |  0.00
Comm    | 4.9664e-05 | 4.9664e-05 | 4.9664e-05 |   0.0 |  5.54
Output  | 0          | 0          | 0          |   0.0 |  0.00
Modify  | 0          | 0          | 0          |   0.0 |  0.00
Other   |            | 0.000281   |            |       | 31.36

Nlocal:             45 ave          45 max          45 min
Histogram: 1 0 0 0 0 0 0 0 0 0
Nghost:            245 ave         245 max         245 min
Histogram: 1 0 0 0 0 0 0 0 0 0
Neighs:            945 ave         945 max         945 min
Histogram: 1 0 0 0 0 0 0 0 0 0

Total # of neighbors = 945
Ave neighs/atom = 21
Neighbor list builds = 0
Dangerous builds = 0
Total energy (eV) = -102.789244082542
Number of atoms = 45
Lattice constant (Angstoms) = 8.71274634215992
Total wall time: 0:00:00
