
     Program PWSCF v.7.4.1 starts on  8Oct2025 at  2: 4:13 

     This program is part of the open-source Quantum ESPRESSO suite
     for quantum simulation of materials; please cite
         "P. Giannozzi et al., J. Phys.:Condens. Matter 21 395502 (2009);
         "P. Giannozzi et al., J. Phys.:Condens. Matter 29 465901 (2017);
         "P. Giannozzi et al., J. Chem. Phys. 152 154105 (2020);
          URL http://www.quantum-espresso.org", 
     in publications or presentations arising from this work. More details at
     http://www.quantum-espresso.org/quote

     Parallel version (MPI), running on     1 processors

     MPI processes distributed on     1 nodes
     456 MiB available memory on the printing compute node when the environment starts

     Waiting for input...
     Reading input from standard input
Warning: card &CELL ignored
Warning: card / ignored

     Current dimensions of program PWSCF are:
     Max number of different atomic species (ntypx) = 10
     Max number of k-points (npk) =  40000
     Max angular momentum in pseudopotentials (lmaxx) =  4
     Message from routine find_sym:
     Not a group! Trying with lower acceptance parameter...
     Message from routine find_sym:
     Still not a group! symmetry disabled

     Subspace diagonalization in iterative solution of the eigenvalue problem:
     a serial algorithm will be used


     G-vector sticks info
     --------------------
     sticks:   dense  smooth     PW     G-vecs:    dense   smooth      PW
     Sum         367     367    121                 4693     4693     941

     Using Slab Decomposition



     bravais-lattice index     =            0
     lattice parameter (alat)  =       7.3345  a.u.
     unit-cell volume          =     278.9908 (a.u.)^3
     number of atoms/cell      =            2
     number of atomic types    =            1
     number of electrons       =        28.00
     number of Kohn-Sham states=           14
     kinetic-energy cutoff     =      25.0000  Ry
     charge density cutoff     =     100.0000  Ry
     scf convergence threshold =      1.0E-07
     mixing beta               =       0.5000
     number of iterations used =            8  plain     mixing
     Exchange-correlation=  SLA  PZ   NOGX NOGC
                           (   1   1   0   0   0   0   0)

     celldm(1)=   7.334463  celldm(2)=   0.000000  celldm(3)=   0.000000
     celldm(4)=   0.000000  celldm(5)=   0.000000  celldm(6)=   0.000000

     crystal axes: (cart. coord. in units of alat)
               a(1) = (   0.000000   0.707107   0.707107 )  
               a(2) = (   0.707107   0.000000   0.707107 )  
               a(3) = (   0.707107   0.707107   0.000000 )  

     reciprocal axes: (cart. coord. in units 2 pi/alat)
               b(1) = ( -0.707107  0.707107  0.707107 )  
               b(2) = (  0.707107 -0.707107  0.707107 )  
               b(3) = (  0.707107  0.707107 -0.707107 )  


     PseudoPot. # 1 for Ge read from file:
     /home/bond/Software/QE/qe-7.4.1/pseudo/ge_lda_v1.4.uspp.F.UPF
     MD5 check sum: bf9d52b59cc8a669818bb2b52e0c2ba0
     Pseudo is Ultrasoft + core correction, Zval = 14.0
     Generated by new atomic code, or converted to UPF format
     Using radial grid of  873 points,  6 beta functions with: 
                l(1) =   0
                l(2) =   0
                l(3) =   1
                l(4) =   1
                l(5) =   2
                l(6) =   2
     Q(r) pseudized with  8 coefficients,  rinner =    1.400   1.400   1.400
                                                       1.400   1.400

     atomic species   valence    mass     pseudopotential
     Ge               14.00    72.63000     Ge( 1.00)

     No symmetry found



   Cartesian axes

     site n.     atom                  positions (alat units)
         1        Ge     tau(   1) = (   0.0000000   0.0000000   0.0000000  )
         2        Ge     tau(   2) = (   0.3535528   0.3535528   0.3535528  )

     number of k points=   504

     Number of k-points >= 100: set verbosity='high' to print them.

     Dense  grid:     4693 G-vectors     FFT dimensions: (  24,  24,  24)

     Estimated max dynamical RAM per process >      81.96 MB

     Check: negative core charge=   -0.000663

     Initial potential from superposition of free atoms

     starting charge      27.9986, renormalised to      28.0000
     Starting wfcs are   18 randomized atomic wfcs

     total cpu time spent up to now is        4.0 secs

     Self-consistent Calculation

     iteration #  1     ecut=    25.00 Ry     beta= 0.50
     Davidson diagonalization with overlap
     ethr =  1.00E-02,  avg # of iterations =  1.9

     Threshold (ethr) on eigenvalues was too large:
     Diagonalizing with lowered threshold

     Davidson diagonalization with overlap
     ethr =  1.83E-04,  avg # of iterations =  1.8

     total cpu time spent up to now is       16.9 secs

     total energy              =    -425.91604931 Ry
     estimated scf accuracy    <       0.05479069 Ry

     iteration #  2     ecut=    25.00 Ry     beta= 0.50
     Davidson diagonalization with overlap
     ethr =  1.96E-04,  avg # of iterations =  1.0

     total cpu time spent up to now is       23.0 secs

     total energy              =    -425.91638477 Ry
     estimated scf accuracy    <       0.00740178 Ry

     iteration #  3     ecut=    25.00 Ry     beta= 0.50
     Davidson diagonalization with overlap
     ethr =  2.64E-05,  avg # of iterations =  2.0

     total cpu time spent up to now is       29.7 secs

     total energy              =    -425.91708247 Ry
     estimated scf accuracy    <       0.00011017 Ry

     iteration #  4     ecut=    25.00 Ry     beta= 0.50
     Davidson diagonalization with overlap
     ethr =  3.93E-07,  avg # of iterations =  3.7

     total cpu time spent up to now is       38.6 secs

     total energy              =    -425.91711825 Ry
     estimated scf accuracy    <       0.00000944 Ry

     iteration #  5     ecut=    25.00 Ry     beta= 0.50
     Davidson diagonalization with overlap
     ethr =  3.37E-08,  avg # of iterations =  2.2

     total cpu time spent up to now is       45.9 secs

     total energy              =    -425.91711964 Ry
     estimated scf accuracy    <       0.00000029 Ry

     iteration #  6     ecut=    25.00 Ry     beta= 0.50
     Davidson diagonalization with overlap
     ethr =  1.05E-09,  avg # of iterations =  3.6

     total cpu time spent up to now is       56.1 secs

     End of self-consistent calculation

     Number of k-points >= 100: set verbosity='high' to print the bands.

     highest occupied level (ev):     9.3941

!    total energy              =    -425.91711983 Ry
     estimated scf accuracy    <       0.00000004 Ry

     The total energy is the sum of the following terms:
     one-electron contribution =    -268.14647134 Ry
     hartree contribution      =     160.24372114 Ry
     xc contribution           =    -114.43514577 Ry
     ewald contribution        =    -203.57922386 Ry

     convergence has been achieved in   6 iterations

     Forces acting on atoms (cartesian axes, Ry/au):

     atom    1 type  1   force =    -0.00000219   -0.00000267    0.00000049
     atom    2 type  1   force =     0.00000219    0.00000267   -0.00000049

     Total force =     0.000005     Total SCF correction =     0.000014
     SCF correction compared to forces is large: reduce conv_thr to get better values


     Computing stress (Cartesian axis) and pressure

          total   stress  (Ry/bohr**3)                   (kbar)     P=     -758.96
  -0.00515931   0.00000001   0.00000000         -758.96        0.00        0.00
   0.00000001  -0.00515931   0.00000001            0.00     -758.96        0.00
   0.00000000   0.00000001  -0.00515931            0.00        0.00     -758.96

     Message from routine punch:
     Nothing written, as per user request (disk_io='none')

     init_run     :      3.67s CPU      3.81s WALL (       1 calls)
     electrons    :     51.13s CPU     52.19s WALL (       1 calls)
     forces       :      0.44s CPU      0.44s WALL (       1 calls)
     stress       :      2.39s CPU      2.42s WALL (       1 calls)

     Called by init_run:
     wfcinit      :      3.29s CPU      3.40s WALL (       1 calls)
     potinit      :      0.01s CPU      0.01s WALL (       1 calls)
     hinit0       :      0.33s CPU      0.33s WALL (       1 calls)

     Called by electrons:
     c_bands      :     43.91s CPU     44.71s WALL (       7 calls)
     sum_band     :      7.13s CPU      7.38s WALL (       7 calls)
     v_of_rho     :      0.01s CPU      0.01s WALL (       7 calls)
     newd         :      0.10s CPU      0.11s WALL (       7 calls)
     mix_rho      :      0.00s CPU      0.00s WALL (       7 calls)

     Called by c_bands:
     init_us_2    :      1.83s CPU      1.88s WALL (    8568 calls)
     cegterg      :     39.72s CPU     40.42s WALL (    3528 calls)

     Called by *egterg:
     cdiaghg      :      2.88s CPU      2.93s WALL (   11213 calls)
     h_psi        :     34.17s CPU     34.83s WALL (   12221 calls)
     s_psi        :      0.97s CPU      0.99s WALL (   12221 calls)
     g_psi        :      0.22s CPU      0.22s WALL (    8189 calls)

     Called by h_psi:
     h_psi:calbec :      1.39s CPU      1.41s WALL (   12221 calls)
     vloc_psi     :     31.39s CPU     31.99s WALL (   12221 calls)
     add_vuspsi   :      1.04s CPU      1.07s WALL (   12221 calls)

     General routines
     calbec       :      2.56s CPU      2.60s WALL (   24317 calls)
     fft          :      0.17s CPU      0.17s WALL (      37 calls)
     ffts         :      0.00s CPU      0.00s WALL (       7 calls)
     fftw         :     31.94s CPU     32.66s WALL (  315336 calls)

     Parallel routines

     PWSCF        :     57.77s CPU     59.01s WALL


   This run was terminated on:   2: 5:12   8Oct2025            

=------------------------------------------------------------------------------=
   JOB DONE.
=------------------------------------------------------------------------------=
