
     Program PWSCF v.7.4.1 starts on  7Oct2025 at 23:55:37 

     This program is part of the open-source Quantum ESPRESSO suite
     for quantum simulation of materials; please cite
         "P. Giannozzi et al., J. Phys.:Condens. Matter 21 395502 (2009);
         "P. Giannozzi et al., J. Phys.:Condens. Matter 29 465901 (2017);
         "P. Giannozzi et al., J. Chem. Phys. 152 154105 (2020);
          URL http://www.quantum-espresso.org", 
     in publications or presentations arising from this work. More details at
     http://www.quantum-espresso.org/quote

     Parallel version (MPI), running on     1 processors

     MPI processes distributed on     1 nodes
     213 MiB available memory on the printing compute node when the environment starts

     Waiting for input...
     Reading input from standard input
Warning: card &CELL ignored
Warning: card / ignored

     Current dimensions of program PWSCF are:
     Max number of different atomic species (ntypx) = 10
     Max number of k-points (npk) =  40000
     Max angular momentum in pseudopotentials (lmaxx) =  4
     Message from routine setup:
     using ibrav=0 with symmetry is DISCOURAGED, use correct ibrav instead

     Subspace diagonalization in iterative solution of the eigenvalue problem:
     a serial algorithm will be used


     G-vector sticks info
     --------------------
     sticks:   dense  smooth     PW     G-vecs:    dense   smooth      PW
     Sum         475     475    151                 6855     6855    1243

     Using Slab Decomposition



     bravais-lattice index     =            0
     lattice parameter (alat)  =       7.5604  a.u.
     unit-cell volume          =     305.5804 (a.u.)^3
     number of atoms/cell      =            2
     number of atomic types    =            1
     number of electrons       =        28.00
     number of Kohn-Sham states=           14
     kinetic-energy cutoff     =      30.0000  Ry
     charge density cutoff     =     120.0000  Ry
     scf convergence threshold =      1.0E-07
     mixing beta               =       0.5000
     number of iterations used =            8  plain     mixing
     Exchange-correlation=  SLA  PZ   NOGX NOGC
                           (   1   1   0   0   0   0   0)

     celldm(1)=   7.560435  celldm(2)=   0.000000  celldm(3)=   0.000000
     celldm(4)=   0.000000  celldm(5)=   0.000000  celldm(6)=   0.000000

     crystal axes: (cart. coord. in units of alat)
               a(1) = (   0.000000   0.707107   0.707107 )  
               a(2) = (   0.707107   0.000000   0.707107 )  
               a(3) = (   0.707107   0.707107   0.000000 )  

     reciprocal axes: (cart. coord. in units 2 pi/alat)
               b(1) = ( -0.707107  0.707107  0.707107 )  
               b(2) = (  0.707107 -0.707107  0.707107 )  
               b(3) = (  0.707107  0.707107 -0.707107 )  


     PseudoPot. # 1 for Ge read from file:
     /home/bond/Software/QE/qe-7.4.1/pseudo/ge_lda_v1.4.uspp.F.UPF
     MD5 check sum: bf9d52b59cc8a669818bb2b52e0c2ba0
     Pseudo is Ultrasoft + core correction, Zval = 14.0
     Generated by new atomic code, or converted to UPF format
     Using radial grid of  873 points,  6 beta functions with: 
                l(1) =   0
                l(2) =   0
                l(3) =   1
                l(4) =   1
                l(5) =   2
                l(6) =   2
     Q(r) pseudized with  8 coefficients,  rinner =    1.400   1.400   1.400
                                                       1.400   1.400

     atomic species   valence    mass     pseudopotential
     Ge               14.00    72.63000     Ge( 1.00)

     48 Sym. Ops., with inversion, found (24 have fractional translation)



   Cartesian axes

     site n.     atom                  positions (alat units)
         1        Ge     tau(   1) = (   0.0000000   0.0000000   0.0000000  )
         2        Ge     tau(   2) = (   0.3535534   0.3535534   0.3535534  )

     number of k points=    16
                       cart. coord. in units 2pi/alat
        k(    1) = (   0.0000000   0.0000000   0.0000000), wk =   0.0092593
        k(    2) = (   0.1178511   0.1178511  -0.1178511), wk =   0.0740741
        k(    3) = (   0.2357023   0.2357023  -0.2357023), wk =   0.0740741
        k(    4) = (  -0.3535534  -0.3535534   0.3535534), wk =   0.0370370
        k(    5) = (   0.2357023   0.0000000   0.0000000), wk =   0.0555556
        k(    6) = (   0.3535534   0.1178511  -0.1178511), wk =   0.2222222
        k(    7) = (  -0.2357023  -0.4714045   0.4714045), wk =   0.2222222
        k(    8) = (  -0.1178511  -0.3535534   0.3535534), wk =   0.2222222
        k(    9) = (   0.0000000  -0.2357023   0.2357023), wk =   0.1111111
        k(   10) = (   0.4714045   0.0000000   0.0000000), wk =   0.0555556
        k(   11) = (  -0.1178511  -0.5892557   0.5892557), wk =   0.2222222
        k(   12) = (  -0.0000000  -0.4714045   0.4714045), wk =   0.1111111
        k(   13) = (  -0.7071068   0.0000000   0.0000000), wk =   0.0277778
        k(   14) = (  -0.2357023  -0.4714045   0.7071068), wk =   0.2222222
        k(   15) = (  -0.1178511  -0.3535534   0.5892557), wk =   0.2222222
        k(   16) = (  -0.7071068   0.2357023   0.0000000), wk =   0.1111111

     Dense  grid:     6855 G-vectors     FFT dimensions: (  32,  32,  32)

     Estimated max dynamical RAM per process >      30.55 MB

     Check: negative core charge=   -0.000126

     Initial potential from superposition of free atoms

     starting charge      27.9986, renormalised to      28.0000
     Starting wfcs are   18 randomized atomic wfcs

     total cpu time spent up to now is        0.9 secs

     Self-consistent Calculation

     iteration #  1     ecut=    30.00 Ry     beta= 0.50
     Davidson diagonalization with overlap
     ethr =  1.00E-02,  avg # of iterations =  1.8

     Threshold (ethr) on eigenvalues was too large:
     Diagonalizing with lowered threshold

     Davidson diagonalization with overlap
     ethr =  1.24E-04,  avg # of iterations =  1.9

     total cpu time spent up to now is        1.6 secs

     total energy              =    -426.13657060 Ry
     estimated scf accuracy    <       0.03674253 Ry

     iteration #  2     ecut=    30.00 Ry     beta= 0.50
     Davidson diagonalization with overlap
     ethr =  1.31E-04,  avg # of iterations =  1.0

     total cpu time spent up to now is        1.9 secs

     total energy              =    -426.13535786 Ry
     estimated scf accuracy    <       0.00628000 Ry

     iteration #  3     ecut=    30.00 Ry     beta= 0.50
     Davidson diagonalization with overlap
     ethr =  2.24E-05,  avg # of iterations =  2.0

     total cpu time spent up to now is        2.3 secs

     total energy              =    -426.13584448 Ry
     estimated scf accuracy    <       0.00006899 Ry

     iteration #  4     ecut=    30.00 Ry     beta= 0.50
     Davidson diagonalization with overlap
     ethr =  2.46E-07,  avg # of iterations =  3.9

     total cpu time spent up to now is        2.8 secs

     total energy              =    -426.13586375 Ry
     estimated scf accuracy    <       0.00000661 Ry

     iteration #  5     ecut=    30.00 Ry     beta= 0.50
     Davidson diagonalization with overlap
     ethr =  2.36E-08,  avg # of iterations =  2.1

     total cpu time spent up to now is        3.2 secs

     End of self-consistent calculation

          k = 0.0000 0.0000 0.0000 (   869 PWs)   bands (ev):

   -16.8179 -16.8179 -16.8179 -16.7926 -16.7926 -16.5912 -16.5912 -16.5912
   -16.5682 -16.5682  -4.6599   7.9634   8.1577   8.1577

          k = 0.1179 0.1179-0.1179 (   869 PWs)   bands (ev):

   -16.8372 -16.8372 -16.8168 -16.7718 -16.7718 -16.6002 -16.6002 -16.5887
   -16.5575 -16.5575  -4.3240   4.9188   7.6354   7.6354

          k = 0.2357 0.2357-0.2357 (   854 PWs)   bands (ev):

   -16.8427 -16.8427 -16.8081 -16.7506 -16.7506 -16.6099 -16.6099 -16.5999
   -16.5442 -16.5442  -3.3933   2.0154   6.9918   6.9918

          k =-0.3536-0.3536 0.3536 (   862 PWs)   bands (ev):

   -16.8424 -16.8424 -16.8098 -16.7504 -16.7504 -16.6154 -16.6154 -16.6003
   -16.5451 -16.5451  -2.5752   0.5115   6.7544   6.7544

          k = 0.2357 0.0000 0.0000 (   869 PWs)   bands (ev):

   -16.8345 -16.8330 -16.8330 -16.7758 -16.7510 -16.6367 -16.5822 -16.5711
   -16.5711 -16.5552  -4.2088   4.8948   6.8677   6.8677

          k = 0.3536 0.1179-0.1179 (   847 PWs)   bands (ev):

   -16.8484 -16.8340 -16.8112 -16.7513 -16.7233 -16.6555 -16.5999 -16.5784
   -16.5486 -16.5370  -3.4540   2.6753   5.8495   6.2566

          k =-0.2357-0.4714 0.4714 (   842 PWs)   bands (ev):

   -16.8559 -16.8437 -16.7887 -16.7313 -16.7219 -16.6452 -16.6205 -16.6036
   -16.5337 -16.5230  -2.4004   0.7047   5.0128   6.1904

          k =-0.1179-0.3536 0.3536 (   848 PWs)   bands (ev):

   -16.8536 -16.8477 -16.7833 -16.7448 -16.7238 -16.6359 -16.6191 -16.6138
   -16.5331 -16.5281  -2.7323   1.2388   4.8113   6.6779

          k = 0.0000-0.2357 0.2357 (   845 PWs)   bands (ev):

   -16.8432 -16.8351 -16.8042 -16.7564 -16.7377 -16.6259 -16.6107 -16.5785
   -16.5518 -16.5400  -3.7789   3.3767   5.5971   7.4640

          k = 0.4714 0.0000 0.0000 (   837 PWs)   bands (ev):

   -16.8417 -16.8417 -16.8192 -16.7214 -16.7024 -16.6798 -16.6171 -16.5615
   -16.5370 -16.5370  -2.8832   1.8932   5.5532   5.5532

          k =-0.1179-0.5893 0.5893 (   847 PWs)   bands (ev):

   -16.8606 -16.8466 -16.7855 -16.7224 -16.7006 -16.6666 -16.6443 -16.5987
   -16.5282 -16.5197  -1.8160   0.4070   4.4065   5.3960

          k =-0.0000-0.4714 0.4714 (   856 PWs)   bands (ev):

   -16.8702 -16.8556 -16.7723 -16.6996 -16.6916 -16.6817 -16.6611 -16.6224
   -16.5247 -16.5152  -1.6842   0.2652   3.6878   5.8469

          k =-0.7071 0.0000 0.0000 (   846 PWs)   bands (ev):

   -16.8491 -16.8491 -16.7735 -16.7735 -16.6733 -16.6733 -16.6146 -16.6146
   -16.5229 -16.5229  -0.7830  -0.7830   5.0843   5.0843

          k =-0.2357-0.4714 0.7071 (   843 PWs)   bands (ev):

   -16.8543 -16.8540 -16.7811 -16.7270 -16.6951 -16.6805 -16.6204 -16.6055
   -16.5267 -16.5247  -2.5440   1.3320   4.4485   5.7081

          k =-0.1179-0.3536 0.5893 (   842 PWs)   bands (ev):

   -16.8645 -16.8582 -16.7612 -16.7115 -16.6869 -16.6802 -16.6453 -16.6226
   -16.5181 -16.5126  -1.6792   0.2357   3.9935   5.2715

          k =-0.7071 0.2357 0.0000 (   858 PWs)   bands (ev):

   -16.8641 -16.8641 -16.7435 -16.7435 -16.6776 -16.6776 -16.6437 -16.6437
   -16.5178 -16.5178  -0.7113  -0.7113   4.4150   4.4150

     highest occupied level (ev):     8.1577

!    total energy              =    -426.13586476 Ry
     estimated scf accuracy    <       0.00000009 Ry

     The total energy is the sum of the following terms:
     one-electron contribution =    -279.00521182 Ry
     hartree contribution      =     164.86506347 Ry
     xc contribution           =    -114.50124135 Ry
     ewald contribution        =    -197.49447506 Ry

     convergence has been achieved in   5 iterations

     Forces acting on atoms (cartesian axes, Ry/au):

     atom    1 type  1   force =     0.00000000    0.00000000    0.00000000
     atom    2 type  1   force =     0.00000000   -0.00000000    0.00000000

     Total force =     0.000000     Total SCF correction =     0.000000


     Computing stress (Cartesian axis) and pressure

          total   stress  (Ry/bohr**3)                   (kbar)     P=     -152.18
  -0.00103447  -0.00000000   0.00000000         -152.18       -0.00        0.00
  -0.00000000  -0.00103447  -0.00000000           -0.00     -152.18       -0.00
   0.00000000   0.00000000  -0.00103447            0.00        0.00     -152.18

     Message from routine punch:
     Nothing written, as per user request (disk_io='none')

     init_run     :      0.70s CPU      0.72s WALL (       1 calls)
     electrons    :      2.28s CPU      2.30s WALL (       1 calls)
     forces       :      0.05s CPU      0.05s WALL (       1 calls)
     stress       :      0.38s CPU      0.38s WALL (       1 calls)

     Called by init_run:
     wfcinit      :      0.32s CPU      0.33s WALL (       1 calls)
     potinit      :      0.01s CPU      0.02s WALL (       1 calls)
     hinit0       :      0.34s CPU      0.34s WALL (       1 calls)

     Called by electrons:
     c_bands      :      1.69s CPU      1.72s WALL (       6 calls)
     sum_band     :      0.46s CPU      0.46s WALL (       6 calls)
     v_of_rho     :      0.01s CPU      0.01s WALL (       6 calls)
     newd         :      0.13s CPU      0.14s WALL (       6 calls)
     mix_rho      :      0.00s CPU      0.00s WALL (       6 calls)

     Called by c_bands:
     init_us_2    :      0.08s CPU      0.08s WALL (     240 calls)
     cegterg      :      1.52s CPU      1.54s WALL (      96 calls)

     Called by *egterg:
     cdiaghg      :      0.07s CPU      0.07s WALL (     283 calls)
     h_psi        :      1.55s CPU      1.56s WALL (     315 calls)
     s_psi        :      0.04s CPU      0.04s WALL (     315 calls)
     g_psi        :      0.01s CPU      0.01s WALL (     203 calls)

     Called by h_psi:
     h_psi:calbec :      0.05s CPU      0.05s WALL (     315 calls)
     vloc_psi     :      1.44s CPU      1.46s WALL (     315 calls)
     add_vuspsi   :      0.04s CPU      0.04s WALL (     315 calls)

     General routines
     calbec       :      0.11s CPU      0.11s WALL (     683 calls)
     fft          :      0.16s CPU      0.16s WALL (      33 calls)
     ffts         :      0.00s CPU      0.00s WALL (       6 calls)
     fftw         :      1.38s CPU      1.39s WALL (    8274 calls)

     Parallel routines

     PWSCF        :      3.56s CPU      3.62s WALL


   This run was terminated on:  23:55:40   7Oct2025            

=------------------------------------------------------------------------------=
   JOB DONE.
=------------------------------------------------------------------------------=
