
     Program PWSCF v.7.4.1 starts on 21Oct2025 at  1:40:22 

     This program is part of the open-source Quantum ESPRESSO suite
     for quantum simulation of materials; please cite
         "P. Giannozzi et al., J. Phys.:Condens. Matter 21 395502 (2009);
         "P. Giannozzi et al., J. Phys.:Condens. Matter 29 465901 (2017);
         "P. Giannozzi et al., J. Chem. Phys. 152 154105 (2020);
          URL http://www.quantum-espresso.org", 
     in publications or presentations arising from this work. More details at
     http://www.quantum-espresso.org/quote

     Parallel version (MPI), running on     2 processors

     MPI processes distributed on     1 nodes
     280 MiB available memory on the printing compute node when the environment starts

     Waiting for input...
     Reading input from standard input
Warning: card &CELL ignored
Warning: card / ignored

     Current dimensions of program PWSCF are:
     Max number of different atomic species (ntypx) = 10
     Max number of k-points (npk) =  40000
     Max angular momentum in pseudopotentials (lmaxx) =  4
     file O.pz-rrkjus.UPF: wavefunction(s)  2S renormalized
     Message from routine setup:
     using ibrav=0 with symmetry is DISCOURAGED, use correct ibrav instead

     R & G space division:  proc/nbgrp/npool/nimage =       2
     Subspace diagonalization in iterative solution of the eigenvalue problem:
     a serial algorithm will be used


     Parallelization info
     --------------------
     sticks:   dense  smooth     PW     G-vecs:    dense   smooth      PW
     Min         568     288     88                14518     5196     870
     Max         569     289     89                14521     5199     873
     Sum        1137     577    177                29039    10395    1743

     Using Slab Decomposition



     bravais-lattice index     =            0
     lattice parameter (alat)  =       7.7479  a.u.
     unit-cell volume          =     465.1020 (a.u.)^3
     number of atoms/cell      =            5
     number of atomic types    =            3
     number of electrons       =        44.00
     number of Kohn-Sham states=           22
     kinetic-energy cutoff     =      30.0000  Ry
     charge density cutoff     =     240.0000  Ry
     scf convergence threshold =      1.0E-07
     mixing beta               =       0.7000
     number of iterations used =            8  plain     mixing
     Exchange-correlation= SLA  PZ   NOGX NOGC
                           (   1   1   0   0   0   0   0)

     celldm(1)=   7.747877  celldm(2)=   0.000000  celldm(3)=   0.000000
     celldm(4)=   0.000000  celldm(5)=   0.000000  celldm(6)=   0.000000

     crystal axes: (cart. coord. in units of alat)
               a(1) = (   1.000000   0.000000   0.000000 )  
               a(2) = (   0.000000   1.000000   0.000000 )  
               a(3) = (   0.000000   0.000000   1.000000 )  

     reciprocal axes: (cart. coord. in units 2 pi/alat)
               b(1) = (  1.000000  0.000000  0.000000 )  
               b(2) = (  0.000000  1.000000  0.000000 )  
               b(3) = (  0.000000  0.000000  1.000000 )  


     PseudoPot. # 1 for O  read from file:
     /home/bond/Software/QE/qe-7.4.1/pseudo/O.pz-rrkjus.UPF
     MD5 check sum: 24fb942a68ef5d262e498166c462ef4a
     Pseudo is Ultrasoft, Zval =  6.0
     Generated by new atomic code, or converted to UPF format
     Using radial grid of 1269 points,  4 beta functions with: 
                l(1) =   0
                l(2) =   0
                l(3) =   1
                l(4) =   1
     Q(r) pseudized with 0 coefficients 


     PseudoPot. # 2 for Pb read from file:
     /home/bond/Software/QE/qe-7.4.1/pseudo/Pb.pz-d-van.UPF
     MD5 check sum: 4e1e5920686a026ae26139ac417581ff
     Pseudo is Ultrasoft, Zval = 14.0
     Generated by new atomic code, or converted to UPF format
     Using radial grid of  899 points,  6 beta functions with: 
                l(1) =   0
                l(2) =   0
                l(3) =   1
                l(4) =   1
                l(5) =   2
                l(6) =   2
     Q(r) pseudized with  8 coefficients,  rinner =    1.000   1.000   1.000
                                                       1.000   1.000

     PseudoPot. # 3 for Ti read from file:
     /home/bond/Software/QE/qe-7.4.1/pseudo/Ti.pz-sp-van_ak.UPF
     MD5 check sum: 545d0e6e05332b8871a8093f427cb0ca
     Pseudo is Ultrasoft, Zval = 12.0
     Generated by new atomic code, or converted to UPF format
     Using radial grid of  851 points,  6 beta functions with: 
                l(1) =   0
                l(2) =   0
                l(3) =   1
                l(4) =   1
                l(5) =   2
                l(6) =   2
     Q(r) pseudized with  8 coefficients,  rinner =    1.000   1.000   1.000
                                                       1.000   1.000

     atomic species   valence    mass     pseudopotential
     O                 6.00    15.99900     O ( 1.00)
     Pb               14.00   207.20000     Pb( 1.00)
     Ti               12.00    47.86700     Ti( 1.00)

     48 Sym. Ops., with inversion, found



   Cartesian axes

     site n.     atom                  positions (alat units)
         1        Pb     tau(   1) = (   0.0000000   0.0000000   0.0000000  )
         2        Ti     tau(   2) = (   0.5000000   0.5000000   0.5000000  )
         3        O      tau(   3) = (   0.0000000   0.5000000   0.5000000  )
         4        O      tau(   4) = (   0.5000000   0.0000000   0.5000000  )
         5        O      tau(   5) = (   0.5000000   0.5000000   0.0000000  )

     number of k points=     4
                       cart. coord. in units 2pi/alat
        k(    1) = (   0.1250000   0.1250000   0.1250000), wk =   0.2500000
        k(    2) = (   0.1250000   0.1250000   0.3750000), wk =   0.7500000
        k(    3) = (   0.1250000   0.3750000   0.3750000), wk =   0.7500000
        k(    4) = (   0.3750000   0.3750000   0.3750000), wk =   0.2500000

     Dense  grid:    29039 G-vectors     FFT dimensions: (  40,  40,  40)

     Smooth grid:    10395 G-vectors     FFT dimensions: (  27,  27,  27)

     Estimated max dynamical RAM per process >      58.99 MB

     Estimated total dynamical RAM >     117.98 MB

     Initial potential from superposition of free atoms

     starting charge      42.9982, renormalised to      44.0000
     Starting wfcs are   31 randomized atomic wfcs

     total cpu time spent up to now is        1.6 secs

     Self-consistent Calculation

     iteration #  1     ecut=    30.00 Ry     beta= 0.70
     Davidson diagonalization with overlap
     ethr =  1.00E-02,  avg # of iterations =  2.0

     total cpu time spent up to now is        2.1 secs

     total energy              =    -332.47988292 Ry
     estimated scf accuracy    <       1.18412476 Ry

     iteration #  2     ecut=    30.00 Ry     beta= 0.70
     Davidson diagonalization with overlap
     ethr =  2.69E-03,  avg # of iterations =  9.8

     total cpu time spent up to now is        2.7 secs

     total energy              =    -331.07812748 Ry
     estimated scf accuracy    <      14.81750010 Ry

     iteration #  3     ecut=    30.00 Ry     beta= 0.70
     Davidson diagonalization with overlap
     ethr =  2.69E-03,  avg # of iterations =  7.2

     total cpu time spent up to now is        3.2 secs

     total energy              =    -332.98843917 Ry
     estimated scf accuracy    <       0.46875814 Ry

     iteration #  4     ecut=    30.00 Ry     beta= 0.70
     Davidson diagonalization with overlap
     ethr =  1.07E-03,  avg # of iterations =  4.5

     total cpu time spent up to now is        3.7 secs

     total energy              =    -333.09509304 Ry
     estimated scf accuracy    <       0.17013793 Ry

     iteration #  5     ecut=    30.00 Ry     beta= 0.70
     Davidson diagonalization with overlap
     ethr =  3.87E-04,  avg # of iterations =  3.2

     total cpu time spent up to now is        4.1 secs

     total energy              =    -333.10482192 Ry
     estimated scf accuracy    <       0.03304111 Ry

     iteration #  6     ecut=    30.00 Ry     beta= 0.70
     Davidson diagonalization with overlap
     ethr =  7.51E-05,  avg # of iterations =  5.2

     total cpu time spent up to now is        4.6 secs

     total energy              =    -333.11773498 Ry
     estimated scf accuracy    <       0.00204861 Ry

     iteration #  7     ecut=    30.00 Ry     beta= 0.70
     Davidson diagonalization with overlap
     ethr =  4.66E-06,  avg # of iterations =  5.0

     total cpu time spent up to now is        5.0 secs

     total energy              =    -333.11692362 Ry
     estimated scf accuracy    <       0.00478784 Ry

     iteration #  8     ecut=    30.00 Ry     beta= 0.70
     Davidson diagonalization with overlap
     ethr =  4.66E-06,  avg # of iterations =  4.2

     total cpu time spent up to now is        5.5 secs

     total energy              =    -333.11737712 Ry
     estimated scf accuracy    <       0.00015126 Ry

     iteration #  9     ecut=    30.00 Ry     beta= 0.70
     Davidson diagonalization with overlap
     ethr =  3.44E-07,  avg # of iterations =  5.2

     total cpu time spent up to now is        6.0 secs

     total energy              =    -333.11745582 Ry
     estimated scf accuracy    <       0.00004120 Ry

     iteration # 10     ecut=    30.00 Ry     beta= 0.70
     Davidson diagonalization with overlap
     ethr =  9.36E-08,  avg # of iterations =  3.5

     total cpu time spent up to now is        6.4 secs

     total energy              =    -333.11745896 Ry
     estimated scf accuracy    <       0.00000395 Ry

     iteration # 11     ecut=    30.00 Ry     beta= 0.70
     Davidson diagonalization with overlap
     ethr =  8.98E-09,  avg # of iterations =  5.2

     total cpu time spent up to now is        6.9 secs

     total energy              =    -333.11746158 Ry
     estimated scf accuracy    <       0.00000287 Ry

     iteration # 12     ecut=    30.00 Ry     beta= 0.70
     Davidson diagonalization with overlap
     ethr =  6.53E-09,  avg # of iterations =  1.0

     total cpu time spent up to now is        7.4 secs

     total energy              =    -333.11746106 Ry
     estimated scf accuracy    <       0.00000195 Ry

     iteration # 13     ecut=    30.00 Ry     beta= 0.70
     Davidson diagonalization with overlap
     ethr =  4.43E-09,  avg # of iterations =  4.2

     total cpu time spent up to now is        7.8 secs

     End of self-consistent calculation

          k = 0.1250 0.1250 0.1250 (  1298 PWs)   bands (ev):

   -47.8594 -24.3443 -24.3443 -24.3439  -8.1216  -7.4006  -7.4006  -6.8946
    -6.8946  -6.8862  -6.6744  -6.6744   2.0463   5.2899   5.2899   5.6314
     6.9466   6.9466   7.5782   7.5870   7.5870   7.6642

          k = 0.1250 0.1250 0.3750 (  1287 PWs)   bands (ev):

   -47.8588 -24.3690 -24.3431 -24.3427  -7.8392  -7.3246  -7.2935  -6.9264
    -6.8915  -6.8699  -6.7635  -6.6785   1.5985   4.7879   5.4677   5.6853
     6.1777   6.6083   7.0088   7.6864   7.7344   8.0306

          k = 0.1250 0.3750 0.3750 (  1296 PWs)   bands (ev):

   -47.8584 -24.3683 -24.3682 -24.3420  -7.7316  -7.2696  -7.2332  -6.9125
    -6.8850  -6.8046  -6.7265  -6.5949   1.4409   4.6753   4.9190   5.3260
     5.5906   6.2638   6.9679   7.2624   7.4476   8.2987

          k = 0.3750 0.3750 0.3750 (  1292 PWs)   bands (ev):

   -47.8579 -24.3670 -24.3670 -24.3669  -7.5285  -7.4290  -7.4290  -6.8682
    -6.8682  -6.5631  -6.4916  -6.4916   1.9478   4.3653   4.3653   4.5015
     5.0424   5.0424   5.5468   8.2517   8.2517   8.3374

     highest occupied level (ev):     8.3374

!    total energy              =    -333.11746132 Ry
     estimated scf accuracy    <       0.00000005 Ry

     The total energy is the sum of the following terms:
     one-electron contribution =     -98.46067515 Ry
     hartree contribution      =      72.72352159 Ry
     xc contribution           =     -49.06206308 Ry
     ewald contribution        =    -258.31824468 Ry

     convergence has been achieved in  13 iterations

     Forces acting on atoms (cartesian axes, Ry/au):

     atom    1 type  2   force =     0.00000000    0.00000000    0.00000000
     atom    2 type  3   force =     0.00000000    0.00000000    0.00000000
     atom    3 type  1   force =     0.00000000    0.00000000    0.00000000
     atom    4 type  1   force =     0.00000000    0.00000000    0.00000000
     atom    5 type  1   force =     0.00000000    0.00000000    0.00000000

     Total force =     0.000000     Total SCF correction =     0.000000


     Computing stress (Cartesian axis) and pressure

          total   stress  (Ry/bohr**3)                   (kbar)     P=     -255.00
  -0.00173347   0.00000000   0.00000000         -255.00        0.00        0.00
   0.00000000  -0.00173347   0.00000000            0.00     -255.00        0.00
   0.00000000   0.00000000  -0.00173347            0.00        0.00     -255.00

     Message from routine punch:
     Nothing written, as per user request (disk_io='none')

     init_run     :      1.02s CPU      1.10s WALL (       1 calls)
     electrons    :      5.33s CPU      6.17s WALL (       1 calls)
     forces       :      0.15s CPU      0.17s WALL (       1 calls)
     stress       :      1.43s CPU      1.57s WALL (       1 calls)

     Called by init_run:
     wfcinit      :      0.09s CPU      0.10s WALL (       1 calls)
     potinit      :      0.10s CPU      0.11s WALL (       1 calls)
     hinit0       :      0.62s CPU      0.63s WALL (       1 calls)

     Called by electrons:
     c_bands      :      2.18s CPU      2.32s WALL (      13 calls)
     sum_band     :      1.78s CPU      2.15s WALL (      13 calls)
     v_of_rho     :      0.04s CPU      0.04s WALL (      14 calls)
     newd         :      1.39s CPU      1.77s WALL (      14 calls)
     mix_rho      :      0.03s CPU      0.03s WALL (      13 calls)

     Called by c_bands:
     init_us_2    :      0.05s CPU      0.06s WALL (     116 calls)
     cegterg      :      2.08s CPU      2.21s WALL (      52 calls)

     Called by *egterg:
     cdiaghg      :      0.19s CPU      0.20s WALL (     294 calls)
     h_psi        :      1.70s CPU      1.81s WALL (     298 calls)
     s_psi        :      0.05s CPU      0.05s WALL (     298 calls)
     g_psi        :      0.01s CPU      0.01s WALL (     242 calls)

     Called by h_psi:
     h_psi:calbec :      0.08s CPU      0.09s WALL (     298 calls)
     vloc_psi     :      1.56s CPU      1.66s WALL (     298 calls)
     add_vuspsi   :      0.05s CPU      0.06s WALL (     298 calls)

     General routines
     calbec       :      0.13s CPU      0.13s WALL (     418 calls)
     fft          :      0.28s CPU      0.28s WALL (      87 calls)
     ffts         :      0.07s CPU      0.07s WALL (      27 calls)
     fftw         :      1.61s CPU      1.70s WALL (    7978 calls)
     interpolate  :      0.07s CPU      0.07s WALL (      14 calls)

     Parallel routines

     PWSCF        :      8.45s CPU      9.54s WALL


   This run was terminated on:   1:40:31  21Oct2025            

=------------------------------------------------------------------------------=
   JOB DONE.
=------------------------------------------------------------------------------=
