
     Program PWSCF v.7.4.1 starts on 21Oct2025 at 12:31: 0 

     This program is part of the open-source Quantum ESPRESSO suite
     for quantum simulation of materials; please cite
         "P. Giannozzi et al., J. Phys.:Condens. Matter 21 395502 (2009);
         "P. Giannozzi et al., J. Phys.:Condens. Matter 29 465901 (2017);
         "P. Giannozzi et al., J. Chem. Phys. 152 154105 (2020);
          URL http://www.quantum-espresso.org", 
     in publications or presentations arising from this work. More details at
     http://www.quantum-espresso.org/quote

     Parallel version (MPI), running on     2 processors

     MPI processes distributed on     1 nodes
     614 MiB available memory on the printing compute node when the environment starts

     Waiting for input...
     Reading input from standard input
Warning: card &CELL ignored
Warning: card / ignored

     Current dimensions of program PWSCF are:
     Max number of different atomic species (ntypx) = 10
     Max number of k-points (npk) =  40000
     Max angular momentum in pseudopotentials (lmaxx) =  4
     file O.pz-rrkjus.UPF: wavefunction(s)  2S renormalized
     Message from routine setup:
     using ibrav=0 with symmetry is DISCOURAGED, use correct ibrav instead

     R & G space division:  proc/nbgrp/npool/nimage =       2
     Subspace diagonalization in iterative solution of the eigenvalue problem:
     a serial algorithm will be used


     Parallelization info
     --------------------
     sticks:   dense  smooth     PW     G-vecs:    dense   smooth      PW
     Min         516     254     74                12286     4354     709
     Max         517     255     75                12287     4355     710
     Sum        1033     509    149                24573     8709    1419

     Using Slab Decomposition



     bravais-lattice index     =            0
     lattice parameter (alat)  =       7.3227  a.u.
     unit-cell volume          =     392.6555 (a.u.)^3
     number of atoms/cell      =            5
     number of atomic types    =            3
     number of electrons       =        44.00
     number of Kohn-Sham states=           22
     kinetic-energy cutoff     =      30.0000  Ry
     charge density cutoff     =     240.0000  Ry
     scf convergence threshold =      1.0E-07
     mixing beta               =       0.7000
     number of iterations used =            8  plain     mixing
     energy convergence thresh.=      1.0E-04
     force convergence thresh. =      1.0E-03
     Exchange-correlation= SLA  PZ   NOGX NOGC
                           (   1   1   0   0   0   0   0)
     nstep                     =           50


     celldm(1)=   7.322689  celldm(2)=   0.000000  celldm(3)=   0.000000
     celldm(4)=   0.000000  celldm(5)=   0.000000  celldm(6)=   0.000000

     crystal axes: (cart. coord. in units of alat)
               a(1) = (   1.000000   0.000000   0.000000 )  
               a(2) = (   0.000000   1.000000   0.000000 )  
               a(3) = (   0.000000   0.000000   1.000000 )  

     reciprocal axes: (cart. coord. in units 2 pi/alat)
               b(1) = (  1.000000  0.000000  0.000000 )  
               b(2) = (  0.000000  1.000000  0.000000 )  
               b(3) = (  0.000000  0.000000  1.000000 )  


     PseudoPot. # 1 for O  read from file:
     /home/bond/Software/QE/qe-7.4.1/pseudo/O.pz-rrkjus.UPF
     MD5 check sum: 24fb942a68ef5d262e498166c462ef4a
     Pseudo is Ultrasoft, Zval =  6.0
     Generated by new atomic code, or converted to UPF format
     Using radial grid of 1269 points,  4 beta functions with: 
                l(1) =   0
                l(2) =   0
                l(3) =   1
                l(4) =   1
     Q(r) pseudized with 0 coefficients 


     PseudoPot. # 2 for Pb read from file:
     /home/bond/Software/QE/qe-7.4.1/pseudo/Pb.pz-d-van.UPF
     MD5 check sum: 4e1e5920686a026ae26139ac417581ff
     Pseudo is Ultrasoft, Zval = 14.0
     Generated by new atomic code, or converted to UPF format
     Using radial grid of  899 points,  6 beta functions with: 
                l(1) =   0
                l(2) =   0
                l(3) =   1
                l(4) =   1
                l(5) =   2
                l(6) =   2
     Q(r) pseudized with  8 coefficients,  rinner =    1.000   1.000   1.000
                                                       1.000   1.000

     PseudoPot. # 3 for Ti read from file:
     /home/bond/Software/QE/qe-7.4.1/pseudo/Ti.pz-sp-van_ak.UPF
     MD5 check sum: 545d0e6e05332b8871a8093f427cb0ca
     Pseudo is Ultrasoft, Zval = 12.0
     Generated by new atomic code, or converted to UPF format
     Using radial grid of  851 points,  6 beta functions with: 
                l(1) =   0
                l(2) =   0
                l(3) =   1
                l(4) =   1
                l(5) =   2
                l(6) =   2
     Q(r) pseudized with  8 coefficients,  rinner =    1.000   1.000   1.000
                                                       1.000   1.000

     atomic species   valence    mass     pseudopotential
     O                 6.00    15.99900     O ( 1.00)
     Pb               14.00   207.20000     Pb( 1.00)
     Ti               12.00    47.86700     Ti( 1.00)

      8 Sym. Ops. (no inversion) found



   Cartesian axes

     site n.     atom                  positions (alat units)
         1        Pb     tau(   1) = (   0.0000000   0.0000000   0.0000000  )
         2        Ti     tau(   2) = (   0.5000000   0.5000000   0.4500000  )
         3        O      tau(   3) = (   0.0000000   0.5000000   0.5000000  )
         4        O      tau(   4) = (   0.5000000   0.0000000   0.5000000  )
         5        O      tau(   5) = (   0.5000000   0.5000000   0.0000000  )

     number of k points=     6
                       cart. coord. in units 2pi/alat
        k(    1) = (   0.1250000   0.1250000   0.1250000), wk =   0.2500000
        k(    2) = (   0.1250000   0.1250000   0.3750000), wk =   0.2500000
        k(    3) = (   0.1250000   0.3750000   0.3750000), wk =   0.5000000
        k(    4) = (   0.3750000   0.3750000   0.3750000), wk =   0.2500000
        k(    5) = (   0.3750000  -0.1250000   0.1250000), wk =   0.5000000
        k(    6) = (   0.3750000  -0.3750000   0.1250000), wk =   0.2500000

     Dense  grid:    24573 G-vectors     FFT dimensions: (  40,  40,  40)

     Smooth grid:     8709 G-vectors     FFT dimensions: (  25,  25,  25)

     Estimated max dynamical RAM per process >      51.19 MB

     Estimated total dynamical RAM >     102.38 MB

     Initial potential from superposition of free atoms

     starting charge      42.9982, renormalised to      44.0000
     Starting wfcs are   31 randomized atomic wfcs

     total cpu time spent up to now is        1.8 secs

     Self-consistent Calculation

     iteration #  1     ecut=    30.00 Ry     beta= 0.70
     Davidson diagonalization with overlap
     ethr =  1.00E-02,  avg # of iterations =  2.0

     total cpu time spent up to now is        2.2 secs

     total energy              =    -332.63074729 Ry
     estimated scf accuracy    <       1.07656779 Ry

     iteration #  2     ecut=    30.00 Ry     beta= 0.70
     Davidson diagonalization with overlap
     ethr =  2.45E-03,  avg # of iterations =  6.0

     total cpu time spent up to now is        2.7 secs

     total energy              =    -332.47295763 Ry
     estimated scf accuracy    <       3.48286836 Ry

     iteration #  3     ecut=    30.00 Ry     beta= 0.70
     Davidson diagonalization with overlap
     ethr =  2.45E-03,  avg # of iterations =  4.8

     total cpu time spent up to now is        3.2 secs

     total energy              =    -333.15073452 Ry
     estimated scf accuracy    <       0.20441785 Ry

     iteration #  4     ecut=    30.00 Ry     beta= 0.70
     Davidson diagonalization with overlap
     ethr =  4.65E-04,  avg # of iterations =  2.3

     total cpu time spent up to now is        3.6 secs

     total energy              =    -333.15033509 Ry
     estimated scf accuracy    <       0.05087380 Ry

     iteration #  5     ecut=    30.00 Ry     beta= 0.70
     Davidson diagonalization with overlap
     ethr =  1.16E-04,  avg # of iterations =  4.8

     total cpu time spent up to now is        4.0 secs

     total energy              =    -333.17493152 Ry
     estimated scf accuracy    <       0.02355598 Ry

     iteration #  6     ecut=    30.00 Ry     beta= 0.70
     Davidson diagonalization with overlap
     ethr =  5.35E-05,  avg # of iterations =  2.0

     total cpu time spent up to now is        4.4 secs

     total energy              =    -333.17266506 Ry
     estimated scf accuracy    <       0.01023541 Ry

     iteration #  7     ecut=    30.00 Ry     beta= 0.70
     Davidson diagonalization with overlap
     ethr =  2.33E-05,  avg # of iterations =  4.0

     total cpu time spent up to now is        4.8 secs

     total energy              =    -333.17521422 Ry
     estimated scf accuracy    <       0.00004466 Ry

     iteration #  8     ecut=    30.00 Ry     beta= 0.70
     Davidson diagonalization with overlap
     ethr =  1.01E-07,  avg # of iterations =  7.3

     total cpu time spent up to now is        5.3 secs

     total energy              =    -333.17528263 Ry
     estimated scf accuracy    <       0.00020497 Ry

     iteration #  9     ecut=    30.00 Ry     beta= 0.70
     Davidson diagonalization with overlap
     ethr =  1.01E-07,  avg # of iterations =  4.0

     total cpu time spent up to now is        5.7 secs

     total energy              =    -333.17527947 Ry
     estimated scf accuracy    <       0.00004039 Ry

     iteration # 10     ecut=    30.00 Ry     beta= 0.70
     Davidson diagonalization with overlap
     ethr =  9.18E-08,  avg # of iterations =  4.2

     total cpu time spent up to now is        6.1 secs

     total energy              =    -333.17528463 Ry
     estimated scf accuracy    <       0.00000190 Ry

     iteration # 11     ecut=    30.00 Ry     beta= 0.70
     Davidson diagonalization with overlap
     ethr =  4.31E-09,  avg # of iterations =  5.0

     total cpu time spent up to now is        6.6 secs

     total energy              =    -333.17528683 Ry
     estimated scf accuracy    <       0.00000040 Ry

     iteration # 12     ecut=    30.00 Ry     beta= 0.70
     Davidson diagonalization with overlap
     ethr =  9.13E-10,  avg # of iterations =  2.0

     total cpu time spent up to now is        6.9 secs

     total energy              =    -333.17528681 Ry
     estimated scf accuracy    <       0.00000014 Ry

     iteration # 13     ecut=    30.00 Ry     beta= 0.70
     Davidson diagonalization with overlap
     ethr =  3.09E-10,  avg # of iterations =  4.5

     total cpu time spent up to now is        7.4 secs

     End of self-consistent calculation

          k = 0.1250 0.1250 0.1250 (  1090 PWs)   bands (ev):

   -44.4576 -21.2240 -21.0571 -21.0561  -6.3234  -5.2944  -5.1643  -4.0050
    -3.9869  -3.9752  -3.8091  -3.7922   4.6150   7.2649   7.3509   8.0860
     8.8667   9.0121   9.5676   9.8113  10.1272  10.1667

          k = 0.1250 0.1250 0.3750 (  1095 PWs)   bands (ev):

   -44.4563 -21.2834 -21.0548 -21.0538  -5.8453  -5.1839  -5.0313  -4.0606
    -4.0007  -3.9684  -3.8907  -3.7822   3.8190   6.8093   7.1060   7.8522
     8.5271   8.5350   9.4691   9.8542  10.2481  10.9684

          k = 0.1250 0.3750 0.3750 (  1087 PWs)   bands (ev):

   -44.4550 -21.2797 -21.1106 -21.0522  -5.6340  -5.0921  -4.8959  -4.0344
    -3.9901  -3.9316  -3.8372  -3.6583   3.4972   6.6001   7.0425   7.1841
     7.5509   8.7652   9.2764   9.5827  10.0176  10.6553

          k = 0.3750 0.3750 0.3750 (  1082 PWs)   bands (ev):

   -44.4537 -21.2771 -21.1082 -21.1080  -5.3501  -5.1473  -5.0769  -3.9491
    -3.9298  -3.6664  -3.5800  -3.5467   4.1320   5.8511   5.9828   6.6862
     7.1961   7.2814   7.9850  10.5399  10.6127  10.8169

          k = 0.3750-0.1250 0.1250 (  1095 PWs)   bands (ev):

   -44.4563 -21.2216 -21.1144 -21.0545  -5.9495  -5.1400  -5.0170  -4.0530
    -3.9904  -3.9745  -3.9073  -3.7686   3.8816   6.9465   7.3810   7.8440
     8.4271   8.8210   9.2249   9.8529   9.9481  10.8331

          k = 0.3750-0.3750 0.1250 (  1087 PWs)   bands (ev):

   -44.4550 -21.2195 -21.1112 -21.1104  -5.8153  -4.9473  -4.8663  -4.0171
    -3.9826  -3.9156  -3.8311  -3.7249   3.5552   6.8673   6.9169   7.1215
     7.4486   8.7036   9.5155   9.5377  10.0156  10.8174

     highest occupied level (ev):    10.9684

!    total energy              =    -333.17528685 Ry
     estimated scf accuracy    <       0.00000001 Ry

     The total energy is the sum of the following terms:
     one-electron contribution =     -77.52312867 Ry
     hartree contribution      =      66.79442632 Ry
     xc contribution           =     -49.69052883 Ry
     ewald contribution        =    -272.75605567 Ry

     convergence has been achieved in  13 iterations

     Forces acting on atoms (cartesian axes, Ry/au):

     atom    1 type  2   force =     0.00000000    0.00000000   -0.02213251
     atom    2 type  3   force =     0.00000000    0.00000000    0.07488317
     atom    3 type  1   force =     0.00000000    0.00000000   -0.00246969
     atom    4 type  1   force =     0.00000000    0.00000000   -0.00246969
     atom    5 type  1   force =     0.00000000    0.00000000   -0.04781129

     Total force =     0.047939     Total SCF correction =     0.000024


     Computing stress (Cartesian axis) and pressure

          total   stress  (Ry/bohr**3)                   (kbar)     P=       12.91
  -0.00005688   0.00000000   0.00000000           -8.37        0.00        0.00
   0.00000000  -0.00005688   0.00000000            0.00       -8.37        0.00
   0.00000000   0.00000000   0.00037695            0.00        0.00       55.45


     BFGS Geometry Optimization
     Energy error            =      2.7E-03 Ry
     Gradient error          =      4.8E-02 Ry/Bohr

     number of scf cycles    =   1
     number of bfgs steps    =   0

     energy             new  =    -333.1752868476 Ry

     new trust radius        =       0.0478112887 bohr
     new conv_thr            =       0.0000001000 Ry


ATOMIC_POSITIONS (angstrom)
Pb               0.0000000000        0.0000000000        0.0000000000    0   0   0
Ti               1.9375000000        1.9375000000        1.7437500000    0   0   0
O                0.0000000000        1.9375000000        1.9361930987
O                1.9375000000        0.0000000000        1.9361930987
O                1.9375000000        1.9375000000       -0.0253006444


     Message from routine punch:
     Nothing written, as per user request (disk_io='none')
     NEW-OLD atomic charge density approx. for the potential

     total cpu time spent up to now is        8.8 secs

     Self-consistent Calculation

     iteration #  1     ecut=    30.00 Ry     beta= 0.70
     Davidson diagonalization with overlap
     ethr =  1.00E-06,  avg # of iterations =  7.0

     total cpu time spent up to now is        9.4 secs

     total energy              =    -333.17682214 Ry
     estimated scf accuracy    <       0.00057301 Ry

     iteration #  2     ecut=    30.00 Ry     beta= 0.70
     Davidson diagonalization with overlap
     ethr =  1.30E-06,  avg # of iterations =  5.5

     total cpu time spent up to now is        9.9 secs

     total energy              =    -333.17680078 Ry
     estimated scf accuracy    <       0.00102561 Ry

     iteration #  3     ecut=    30.00 Ry     beta= 0.70
     Davidson diagonalization with overlap
     ethr =  1.30E-06,  avg # of iterations =  4.5

     total cpu time spent up to now is       10.3 secs

     total energy              =    -333.17702277 Ry
     estimated scf accuracy    <       0.00005956 Ry

     iteration #  4     ecut=    30.00 Ry     beta= 0.70
     Davidson diagonalization with overlap
     ethr =  1.35E-07,  avg # of iterations =  2.7

     total cpu time spent up to now is       10.7 secs

     total energy              =    -333.17702917 Ry
     estimated scf accuracy    <       0.00000942 Ry

     iteration #  5     ecut=    30.00 Ry     beta= 0.70
     Davidson diagonalization with overlap
     ethr =  2.14E-08,  avg # of iterations =  4.5

     total cpu time spent up to now is       11.1 secs

     total energy              =    -333.17703266 Ry
     estimated scf accuracy    <       0.00000085 Ry

     iteration #  6     ecut=    30.00 Ry     beta= 0.70
     Davidson diagonalization with overlap
     ethr =  1.93E-09,  avg # of iterations =  3.3

     total cpu time spent up to now is       11.5 secs

     total energy              =    -333.17703272 Ry
     estimated scf accuracy    <       0.00000027 Ry

     iteration #  7     ecut=    30.00 Ry     beta= 0.70
     Davidson diagonalization with overlap
     ethr =  6.16E-10,  avg # of iterations =  4.2

     total cpu time spent up to now is       11.9 secs

     End of self-consistent calculation

          k = 0.1250 0.1250 0.1250 (  1090 PWs)   bands (ev):

   -44.5066 -21.2307 -21.1080 -21.1069  -6.3271  -5.2853  -5.1756  -3.9937
    -3.9786  -3.9670  -3.8000  -3.7860   4.6243   7.2731   7.3399   8.0784
     8.9153   9.0591   9.6076   9.8131  10.1117  10.1819

          k = 0.1250 0.1250 0.3750 (  1095 PWs)   bands (ev):

   -44.5053 -21.2899 -21.1056 -21.1047  -5.8582  -5.1665  -5.0447  -4.0503
    -3.9892  -3.9608  -3.8846  -3.7728   3.8414   6.8108   7.1367   7.8350
     8.5385   8.5795   9.4640   9.8616  10.2325  10.9650

          k = 0.1250 0.3750 0.3750 (  1087 PWs)   bands (ev):

   -44.5040 -21.2862 -21.1611 -21.1031  -5.6452  -5.0739  -4.9072  -4.0240
    -3.9795  -3.9230  -3.8293  -3.6543   3.5120   6.6266   7.0298   7.1821
     7.5450   8.7558   9.3215   9.5727  10.0392  10.6643

          k = 0.3750 0.3750 0.3750 (  1082 PWs)   bands (ev):

   -44.5027 -21.2837 -21.1588 -21.1585  -5.3398  -5.1493  -5.0863  -3.9380
    -3.9220  -3.6531  -3.5748  -3.5451   4.1426   5.8773   5.9833   6.6800
     7.1903   7.2592   8.0000  10.5692  10.6372  10.8039

          k = 0.3750-0.1250 0.1250 (  1095 PWs)   bands (ev):

   -44.5053 -21.2284 -21.1649 -21.1053  -5.9467  -5.1373  -5.0288  -4.0440
    -3.9803  -3.9661  -3.8984  -3.7621   3.8917   6.9354   7.3886   7.8468
     8.4330   8.8300   9.2551   9.8711   9.9706  10.8446

          k = 0.3750-0.3750 0.1250 (  1087 PWs)   bands (ev):

   -44.5040 -21.2262 -21.1617 -21.1609  -5.7997  -4.9579  -4.8789  -4.0095
    -3.9734  -3.9092  -3.8243  -3.7109   3.5572   6.8601   6.9226   7.1536
     7.4707   8.7038   9.5254   9.5314  10.0172  10.8059

     highest occupied level (ev):    10.9650

!    total energy              =    -333.17703278 Ry
     estimated scf accuracy    <          6.9E-09 Ry

     The total energy is the sum of the following terms:
     one-electron contribution =     -77.12923569 Ry
     hartree contribution      =      66.58528527 Ry
     xc contribution           =     -49.67605587 Ry
     ewald contribution        =    -272.95702650 Ry

     convergence has been achieved in   7 iterations

     Forces acting on atoms (cartesian axes, Ry/au):

     atom    1 type  2   force =     0.00000000    0.00000000   -0.02265559
     atom    2 type  3   force =     0.00000000    0.00000000    0.05998330
     atom    3 type  1   force =     0.00000000    0.00000000   -0.00623322
     atom    4 type  1   force =     0.00000000    0.00000000   -0.00623322
     atom    5 type  1   force =     0.00000000    0.00000000   -0.02486126

     Total force =     0.026378     Total SCF correction =     0.000186


     Computing stress (Cartesian axis) and pressure

          total   stress  (Ry/bohr**3)                   (kbar)     P=        3.83
  -0.00007715   0.00000000   0.00000000          -11.35        0.00        0.00
   0.00000000  -0.00007715   0.00000000            0.00      -11.35        0.00
   0.00000000   0.00000000   0.00023231            0.00        0.00       34.17

     Energy error            =      1.7E-03 Ry
     Gradient error          =      2.5E-02 Ry/Bohr

     number of scf cycles    =   2
     number of bfgs steps    =   1

     energy             old  =    -333.1752868476 Ry
     energy             new  =    -333.1770327782 Ry

     CASE: energy            _new < energy            _old

     new trust radius        =       0.0525924175 bohr
     new conv_thr            =       0.0000000175 Ry


ATOMIC_POSITIONS (angstrom)
Pb               0.0000000000        0.0000000000        0.0000000000    0   0   0
Ti               1.9375000000        1.9375000000        1.7437500000    0   0   0
O                0.0000000000        1.9375000000        1.9296581807
O                1.9375000000        0.0000000000        1.9296581807
O                1.9375000000        1.9375000000       -0.0531313532


     Message from routine punch:
     Nothing written, as per user request (disk_io='none')
     NEW-OLD atomic charge density approx. for the potential

     total cpu time spent up to now is       13.4 secs

     Self-consistent Calculation

     iteration #  1     ecut=    30.00 Ry     beta= 0.70
     Davidson diagonalization with overlap
     ethr =  1.00E-06,  avg # of iterations =  7.7

     total cpu time spent up to now is       13.9 secs

     total energy              =    -333.17775836 Ry
     estimated scf accuracy    <       0.00066123 Ry

     iteration #  2     ecut=    30.00 Ry     beta= 0.70
     Davidson diagonalization with overlap
     ethr =  1.50E-06,  avg # of iterations =  5.5

     total cpu time spent up to now is       14.4 secs

     total energy              =    -333.17772546 Ry
     estimated scf accuracy    <       0.00118083 Ry

     iteration #  3     ecut=    30.00 Ry     beta= 0.70
     Davidson diagonalization with overlap
     ethr =  1.50E-06,  avg # of iterations =  4.5

     total cpu time spent up to now is       14.9 secs

     total energy              =    -333.17797721 Ry
     estimated scf accuracy    <       0.00006931 Ry

     iteration #  4     ecut=    30.00 Ry     beta= 0.70
     Davidson diagonalization with overlap
     ethr =  1.58E-07,  avg # of iterations =  3.0

     total cpu time spent up to now is       15.3 secs

     total energy              =    -333.17798459 Ry
     estimated scf accuracy    <       0.00001136 Ry

     iteration #  5     ecut=    30.00 Ry     beta= 0.70
     Davidson diagonalization with overlap
     ethr =  2.58E-08,  avg # of iterations =  4.8

     total cpu time spent up to now is       15.7 secs

     total energy              =    -333.17798882 Ry
     estimated scf accuracy    <       0.00000091 Ry

     iteration #  6     ecut=    30.00 Ry     beta= 0.70
     Davidson diagonalization with overlap
     ethr =  2.06E-09,  avg # of iterations =  4.0

     total cpu time spent up to now is       16.2 secs

     total energy              =    -333.17798888 Ry
     estimated scf accuracy    <       0.00000048 Ry

     iteration #  7     ecut=    30.00 Ry     beta= 0.70
     Davidson diagonalization with overlap
     ethr =  1.10E-09,  avg # of iterations =  3.7

     total cpu time spent up to now is       16.6 secs

     total energy              =    -333.17798892 Ry
     estimated scf accuracy    <       0.00000006 Ry

     iteration #  8     ecut=    30.00 Ry     beta= 0.70
     Davidson diagonalization with overlap
     ethr =  1.31E-10,  avg # of iterations =  4.8

     total cpu time spent up to now is       17.0 secs

     total energy              =    -333.17798895 Ry
     estimated scf accuracy    <       0.00000003 Ry

     iteration #  9     ecut=    30.00 Ry     beta= 0.70
     Davidson diagonalization with overlap
     ethr =  5.93E-11,  avg # of iterations =  4.2

     total cpu time spent up to now is       17.4 secs

     End of self-consistent calculation

          k = 0.1250 0.1250 0.1250 (  1090 PWs)   bands (ev):

   -44.5548 -21.2408 -21.1578 -21.1568  -6.3298  -5.2754  -5.1894  -3.9831
    -3.9710  -3.9595  -3.7915  -3.7804   4.6329   7.2796   7.3276   8.0751
     8.9674   9.0976   9.6616   9.8212  10.0929  10.1940

          k = 0.1250 0.1250 0.3750 (  1095 PWs)   bands (ev):

   -44.5536 -21.2997 -21.1555 -21.1546  -5.8722  -5.1462  -5.0609  -4.0405
    -3.9785  -3.9538  -3.8790  -3.7639   3.8639   6.8132   7.1704   7.8210
     8.5376   8.6290   9.4588   9.8737  10.2144  10.9585

          k = 0.1250 0.3750 0.3750 (  1087 PWs)   bands (ev):

   -44.5523 -21.2960 -21.2108 -21.1530  -5.6579  -5.0534  -4.9184  -4.0143
    -3.9696  -3.9147  -3.8216  -3.6511   3.5259   6.6565   7.0088   7.1810
     7.5359   8.7439   9.3652   9.5606  10.0581  10.6777

          k = 0.3750 0.3750 0.3750 (  1082 PWs)   bands (ev):

   -44.5510 -21.2935 -21.2084 -21.2082  -5.3292  -5.1486  -5.0964  -3.9277
    -3.9148  -3.6407  -3.5693  -3.5437   4.1514   5.9011   5.9805   6.6782
     7.1769   7.2291   8.0128  10.6008  10.6626  10.7901

          k = 0.3750-0.1250 0.1250 (  1095 PWs)   bands (ev):

   -44.5536 -21.2385 -21.2145 -21.1552  -5.9424  -5.1344  -5.0415  -4.0356
    -3.9711  -3.9582  -3.8894  -3.7559   3.9013   6.9205   7.3913   7.8462
     8.4376   8.8314   9.2903   9.8916   9.9989  10.8564

          k = 0.3750-0.3750 0.1250 (  1087 PWs)   bands (ev):

   -44.5523 -21.2364 -21.2113 -21.2105  -5.7807  -4.9689  -4.8923  -4.0026
    -3.9649  -3.9031  -3.8178  -3.6973   3.5579   6.8511   6.9197   7.1807
     7.4913   8.7024   9.5264   9.5300  10.0227  10.7931

     highest occupied level (ev):    10.9585

!    total energy              =    -333.17798896 Ry
     estimated scf accuracy    <          5.3E-10 Ry

     The total energy is the sum of the following terms:
     one-electron contribution =     -76.81451412 Ry
     hartree contribution      =      66.41648471 Ry
     xc contribution           =     -49.66352055 Ry
     ewald contribution        =    -273.11643899 Ry

     convergence has been achieved in   9 iterations

     Forces acting on atoms (cartesian axes, Ry/au):

     atom    1 type  2   force =     0.00000000    0.00000000   -0.02257576
     atom    2 type  3   force =     0.00000000    0.00000000    0.04653865
     atom    3 type  1   force =     0.00000000    0.00000000   -0.00975282
     atom    4 type  1   force =     0.00000000    0.00000000   -0.00975282
     atom    5 type  1   force =     0.00000000    0.00000000   -0.00445725

     Total force =     0.014495     Total SCF correction =     0.000011


     Computing stress (Cartesian axis) and pressure

          total   stress  (Ry/bohr**3)                   (kbar)     P=       -3.87
  -0.00009101   0.00000000   0.00000000          -13.39        0.00        0.00
   0.00000000  -0.00009101   0.00000000            0.00      -13.39        0.00
   0.00000000   0.00000000   0.00010306            0.00        0.00       15.16

     Energy error            =      9.6E-04 Ry
     Gradient error          =      9.8E-03 Ry/Bohr

     number of scf cycles    =   3
     number of bfgs steps    =   2

     energy             old  =    -333.1770327782 Ry
     energy             new  =    -333.1779889577 Ry

     CASE: energy            _new < energy            _old

     new trust radius        =       0.0297677118 bohr
     new conv_thr            =       0.0000000096 Ry


ATOMIC_POSITIONS (angstrom)
Pb               0.0000000000        0.0000000000        0.0000000000    0   0   0
Ti               1.9375000000        1.9375000000        1.7437500000    0   0   0
O                0.0000000000        1.9375000000        1.9197286460
O                1.9375000000        0.0000000000        1.9197286460
O                1.9375000000        1.9375000000       -0.0688837479


     Message from routine punch:
     Nothing written, as per user request (disk_io='none')
     NEW-OLD atomic charge density approx. for the potential

     total cpu time spent up to now is       18.9 secs

     Self-consistent Calculation

     iteration #  1     ecut=    30.00 Ry     beta= 0.70
     Davidson diagonalization with overlap
     ethr =  1.00E-06,  avg # of iterations =  7.0

     total cpu time spent up to now is       19.4 secs

     total energy              =    -333.17833219 Ry
     estimated scf accuracy    <       0.00020890 Ry

     iteration #  2     ecut=    30.00 Ry     beta= 0.70
     Davidson diagonalization with overlap
     ethr =  4.75E-07,  avg # of iterations =  4.7

     total cpu time spent up to now is       19.8 secs

     total energy              =    -333.17832941 Ry
     estimated scf accuracy    <       0.00021952 Ry

     iteration #  3     ecut=    30.00 Ry     beta= 0.70
     Davidson diagonalization with overlap
     ethr =  4.75E-07,  avg # of iterations =  4.5

     total cpu time spent up to now is       20.2 secs

     total energy              =    -333.17838190 Ry
     estimated scf accuracy    <       0.00003476 Ry

     iteration #  4     ecut=    30.00 Ry     beta= 0.70
     Davidson diagonalization with overlap
     ethr =  7.90E-08,  avg # of iterations =  3.3

     total cpu time spent up to now is       20.6 secs

     total energy              =    -333.17838606 Ry
     estimated scf accuracy    <       0.00000247 Ry

     iteration #  5     ecut=    30.00 Ry     beta= 0.70
     Davidson diagonalization with overlap
     ethr =  5.62E-09,  avg # of iterations =  5.2

     total cpu time spent up to now is       21.0 secs

     total energy              =    -333.17838765 Ry
     estimated scf accuracy    <       0.00000065 Ry

     iteration #  6     ecut=    30.00 Ry     beta= 0.70
     Davidson diagonalization with overlap
     ethr =  1.47E-09,  avg # of iterations =  2.8

     total cpu time spent up to now is       21.4 secs

     total energy              =    -333.17838764 Ry
     estimated scf accuracy    <       0.00000022 Ry

     iteration #  7     ecut=    30.00 Ry     beta= 0.70
     Davidson diagonalization with overlap
     ethr =  4.92E-10,  avg # of iterations =  4.7

     total cpu time spent up to now is       21.8 secs

     End of self-consistent calculation

          k = 0.1250 0.1250 0.1250 (  1090 PWs)   bands (ev):

   -44.5778 -21.2458 -21.1819 -21.1809  -6.3308  -5.2710  -5.2003  -3.9781
    -3.9677  -3.9561  -3.7878  -3.7781   4.6371   7.2841   7.3216   8.0772
     8.9964   9.1131   9.7002   9.8304  10.0785  10.1948

          k = 0.1250 0.1250 0.3750 (  1095 PWs)   bands (ev):

   -44.5765 -21.3045 -21.1796 -21.1787  -5.8810  -5.1346  -5.0734  -4.0359
    -3.9735  -3.9507  -3.8765  -3.7598   3.8766   6.8166   7.1953   7.8187
     8.5288   8.6524   9.4531   9.8843  10.2012  10.9506

          k = 0.1250 0.3750 0.3750 (  1087 PWs)   bands (ev):

   -44.5752 -21.3009 -21.2349 -21.1771  -5.6665  -5.0418  -4.9250  -4.0097
    -3.9651  -3.9108  -3.8180  -3.6501   3.5324   6.6769   6.9896   7.1821
     7.5278   8.7355   9.3851   9.5513  10.0659  10.6863

          k = 0.3750 0.3750 0.3750 (  1082 PWs)   bands (ev):

   -44.5739 -21.2984 -21.2326 -21.2323  -5.3232  -5.1475  -5.1030  -3.9228
    -3.9116  -3.6347  -3.5664  -3.5433   4.1537   5.9122   5.9754   6.6819
     7.1614   7.2033   8.0181  10.6183  10.6757  10.7811

          k = 0.3750-0.1250 0.1250 (  1095 PWs)   bands (ev):

   -44.5765 -21.2438 -21.2384 -21.1793  -5.9391  -5.1347  -5.0497  -4.0319
    -3.9670  -3.9547  -3.8846  -3.7530   3.9056   6.9088   7.3888   7.8459
     8.4403   8.8248   9.3097   9.9032  10.0177  10.8617

          k = 0.3750-0.3750 0.1250 (  1087 PWs)   bands (ev):

   -44.5752 -21.2417 -21.2351 -21.2346  -5.7682  -4.9761  -4.9009  -3.9996
    -3.9609  -3.9001  -3.8146  -3.6905   3.5563   6.8449   6.9129   7.1896
     7.4964   8.7004   9.5231   9.5266  10.0278  10.7840

     highest occupied level (ev):    10.9506

!    total energy              =    -333.17838770 Ry
     estimated scf accuracy    <          3.5E-09 Ry

     The total energy is the sum of the following terms:
     one-electron contribution =     -76.72354982 Ry
     hartree contribution      =      66.36491745 Ry
     xc contribution           =     -49.65857873 Ry
     ewald contribution        =    -273.16117660 Ry

     convergence has been achieved in   7 iterations

     Forces acting on atoms (cartesian axes, Ry/au):

     atom    1 type  2   force =     0.00000000    0.00000000   -0.02208423
     atom    2 type  3   force =     0.00000000    0.00000000    0.04020947
     atom    3 type  1   force =     0.00000000    0.00000000   -0.01091077
     atom    4 type  1   force =     0.00000000    0.00000000   -0.01091077
     atom    5 type  1   force =     0.00000000    0.00000000    0.00369630

     Total force =     0.015867     Total SCF correction =     0.000028


     Computing stress (Cartesian axis) and pressure

          total   stress  (Ry/bohr**3)                   (kbar)     P=       -7.04
  -0.00009419   0.00000000   0.00000000          -13.86        0.00        0.00
   0.00000000  -0.00009419   0.00000000            0.00      -13.86        0.00
   0.00000000   0.00000000   0.00004490            0.00        0.00        6.61

     Energy error            =      4.0E-04 Ry
     Gradient error          =      1.1E-02 Ry/Bohr

     number of scf cycles    =   4
     number of bfgs steps    =   3

     energy             old  =    -333.1779889577 Ry
     energy             new  =    -333.1783876955 Ry

     CASE: energy            _new < energy            _old

     new trust radius        =       0.0327444830 bohr
     new conv_thr            =       0.0000000040 Ry


ATOMIC_POSITIONS (angstrom)
Pb               0.0000000000        0.0000000000        0.0000000000    0   0   0
Ti               1.9375000000        1.9375000000        1.7437500000    0   0   0
O                0.0000000000        1.9375000000        1.9024010119
O                1.9375000000        0.0000000000        1.9024010119
O                1.9375000000        1.9375000000       -0.0857639176


     Message from routine punch:
     Nothing written, as per user request (disk_io='none')
     NEW-OLD atomic charge density approx. for the potential

     total cpu time spent up to now is       23.3 secs

     Self-consistent Calculation

     iteration #  1     ecut=    30.00 Ry     beta= 0.70
     Davidson diagonalization with overlap
     ethr =  1.00E-06,  avg # of iterations =  7.7

     total cpu time spent up to now is       23.8 secs

     total energy              =    -333.17884143 Ry
     estimated scf accuracy    <       0.00030730 Ry

     iteration #  2     ecut=    30.00 Ry     beta= 0.70
     Davidson diagonalization with overlap
     ethr =  6.98E-07,  avg # of iterations =  4.3

     total cpu time spent up to now is       24.3 secs

     total energy              =    -333.17883898 Ry
     estimated scf accuracy    <       0.00020879 Ry

     iteration #  3     ecut=    30.00 Ry     beta= 0.70
     Davidson diagonalization with overlap
     ethr =  4.75E-07,  avg # of iterations =  4.5

     total cpu time spent up to now is       24.8 secs

     total energy              =    -333.17889297 Ry
     estimated scf accuracy    <       0.00008916 Ry

     iteration #  4     ecut=    30.00 Ry     beta= 0.70
     Davidson diagonalization with overlap
     ethr =  2.03E-07,  avg # of iterations =  3.0

     total cpu time spent up to now is       25.2 secs

     total energy              =    -333.17890119 Ry
     estimated scf accuracy    <       0.00000703 Ry

     iteration #  5     ecut=    30.00 Ry     beta= 0.70
     Davidson diagonalization with overlap
     ethr =  1.60E-08,  avg # of iterations =  5.2

     total cpu time spent up to now is       25.7 secs

     total energy              =    -333.17890731 Ry
     estimated scf accuracy    <       0.00000869 Ry

     iteration #  6     ecut=    30.00 Ry     beta= 0.70
     Davidson diagonalization with overlap
     ethr =  1.60E-08,  avg # of iterations =  1.2

     total cpu time spent up to now is       26.0 secs

     total energy              =    -333.17890608 Ry
     estimated scf accuracy    <       0.00000536 Ry

     iteration #  7     ecut=    30.00 Ry     beta= 0.70
     Davidson diagonalization with overlap
     ethr =  1.22E-08,  avg # of iterations =  2.8

     total cpu time spent up to now is       26.4 secs

     total energy              =    -333.17890677 Ry
     estimated scf accuracy    <       0.00000050 Ry

     iteration #  8     ecut=    30.00 Ry     beta= 0.70
     Davidson diagonalization with overlap
     ethr =  1.13E-09,  avg # of iterations =  4.8

     total cpu time spent up to now is       26.9 secs

     total energy              =    -333.17890693 Ry
     estimated scf accuracy    <          8.3E-09 Ry

     iteration #  9     ecut=    30.00 Ry     beta= 0.70
     Davidson diagonalization with overlap
     ethr =  1.88E-11,  avg # of iterations =  5.0

     total cpu time spent up to now is       27.4 secs

     total energy              =    -333.17890693 Ry
     estimated scf accuracy    <       0.00000001 Ry

     iteration # 10     ecut=    30.00 Ry     beta= 0.70
     Davidson diagonalization with overlap
     ethr =  1.88E-11,  avg # of iterations =  4.7

     total cpu time spent up to now is       27.8 secs

     End of self-consistent calculation

          k = 0.1250 0.1250 0.1250 (  1090 PWs)   bands (ev):

   -44.6005 -21.2519 -21.2062 -21.2052  -6.3321  -5.2677  -5.2158  -3.9729
    -3.9641  -3.9526  -3.7843  -3.7752   4.6416   7.2900   7.3164   8.0827
     9.0261   9.1247   9.7486   9.8438  10.0581  10.1877

          k = 0.1250 0.1250 0.3750 (  1095 PWs)   bands (ev):

   -44.5993 -21.3104 -21.2040 -21.2030  -5.8924  -5.1223  -5.0911  -4.0305
    -3.9680  -3.9475  -3.8732  -3.7556   3.8909   6.8217   7.2285   7.8208
     8.5102   8.6739   9.4423   9.8987  10.1831  10.9382

          k = 0.1250 0.3750 0.3750 (  1087 PWs)   bands (ev):

   -44.5980 -21.3068 -21.2594 -21.2014  -5.6779  -5.0303  -4.9330  -4.0048
    -3.9604  -3.9063  -3.8138  -3.6487   3.5388   6.7019   6.9614   7.1840
     7.5166   8.7242   9.4012   9.5383  10.0719  10.6959

          k = 0.3750 0.3750 0.3750 (  1082 PWs)   bands (ev):

   -44.5967 -21.3043 -21.2570 -21.2568  -5.3173  -5.1461  -5.1118  -3.9176
    -3.9082  -3.6283  -3.5629  -3.5422   4.1534   5.9225   5.9665   6.6892
     7.1370   7.1664   8.0236  10.6362  10.6869  10.7700

          k = 0.3750-0.1250 0.1250 (  1095 PWs)   bands (ev):

   -44.5993 -21.2632 -21.2496 -21.2036  -5.9355  -5.1377  -5.0603  -4.0280
    -3.9625  -3.9509  -3.8786  -3.7496   3.9095   6.8923   7.3820   7.8464
     8.4433   8.8107   9.3284   9.9141  10.0400  10.8660

          k = 0.3750-0.3750 0.1250 (  1087 PWs)   bands (ev):

   -44.5980 -21.2601 -21.2591 -21.2473  -5.7533  -4.9862  -4.9126  -3.9965
    -3.9563  -3.8959  -3.8102  -3.6830   3.5524   6.8365   6.9008   7.1928
     7.4951   8.6974   9.5171   9.5184  10.0352  10.7713

     highest occupied level (ev):    10.9382

!    total energy              =    -333.17890694 Ry
     estimated scf accuracy    <          9.2E-10 Ry

     The total energy is the sum of the following terms:
     one-electron contribution =     -76.70933569 Ry
     hartree contribution      =      66.35202938 Ry
     xc contribution           =     -49.65539382 Ry
     ewald contribution        =    -273.16620680 Ry

     convergence has been achieved in  10 iterations

     Forces acting on atoms (cartesian axes, Ry/au):

     atom    1 type  2   force =     0.00000000    0.00000000   -0.02088291
     atom    2 type  3   force =     0.00000000    0.00000000    0.03431117
     atom    3 type  1   force =     0.00000000    0.00000000   -0.01128846
     atom    4 type  1   force =     0.00000000    0.00000000   -0.01128846
     atom    5 type  1   force =     0.00000000    0.00000000    0.00914867

     Total force =     0.018400     Total SCF correction =     0.000012


     Computing stress (Cartesian axis) and pressure

          total   stress  (Ry/bohr**3)                   (kbar)     P=       -8.79
  -0.00008929   0.00000000   0.00000000          -13.13        0.00        0.00
   0.00000000  -0.00008929   0.00000000            0.00      -13.13        0.00
   0.00000000   0.00000000  -0.00000067            0.00        0.00       -0.10

     Energy error            =      5.2E-04 Ry
     Gradient error          =      1.1E-02 Ry/Bohr

     number of scf cycles    =   5
     number of bfgs steps    =   4

     energy             old  =    -333.1783876955 Ry
     energy             new  =    -333.1789069358 Ry

     CASE: energy            _new < energy            _old

     new trust radius        =       0.0491167245 bohr
     new conv_thr            =       0.0000000052 Ry


ATOMIC_POSITIONS (angstrom)
Pb               0.0000000000        0.0000000000        0.0000000000    0   0   0
Ti               1.9375000000        1.9375000000        1.7437500000    0   0   0
O                0.0000000000        1.9375000000        1.8764095606
O                1.9375000000        0.0000000000        1.8764095606
O                1.9375000000        1.9375000000       -0.1050572379


     Message from routine punch:
     Nothing written, as per user request (disk_io='none')
     NEW-OLD atomic charge density approx. for the potential

     total cpu time spent up to now is       29.4 secs

     Self-consistent Calculation

     iteration #  1     ecut=    30.00 Ry     beta= 0.70
     Davidson diagonalization with overlap
     ethr =  1.00E-06,  avg # of iterations =  9.0

     total cpu time spent up to now is       30.0 secs

     total energy              =    -333.17950401 Ry
     estimated scf accuracy    <       0.00053090 Ry

     iteration #  2     ecut=    30.00 Ry     beta= 0.70
     Davidson diagonalization with overlap
     ethr =  1.21E-06,  avg # of iterations =  4.2

     total cpu time spent up to now is       30.4 secs

     total energy              =    -333.17950578 Ry
     estimated scf accuracy    <       0.00027134 Ry

     iteration #  3     ecut=    30.00 Ry     beta= 0.70
     Davidson diagonalization with overlap
     ethr =  6.17E-07,  avg # of iterations =  4.5

     total cpu time spent up to now is       30.8 secs

     total energy              =    -333.17957954 Ry
     estimated scf accuracy    <       0.00018542 Ry

     iteration #  4     ecut=    30.00 Ry     beta= 0.70
     Davidson diagonalization with overlap
     ethr =  4.21E-07,  avg # of iterations =  3.0

     total cpu time spent up to now is       31.2 secs

     total energy              =    -333.17959594 Ry
     estimated scf accuracy    <       0.00001399 Ry

     iteration #  5     ecut=    30.00 Ry     beta= 0.70
     Davidson diagonalization with overlap
     ethr =  3.18E-08,  avg # of iterations =  5.5

     total cpu time spent up to now is       31.7 secs

     total energy              =    -333.17960816 Ry
     estimated scf accuracy    <       0.00002045 Ry

     iteration #  6     ecut=    30.00 Ry     beta= 0.70
     Davidson diagonalization with overlap
     ethr =  3.18E-08,  avg # of iterations =  1.8

     total cpu time spent up to now is       32.1 secs

     total energy              =    -333.17960562 Ry
     estimated scf accuracy    <       0.00001222 Ry

     iteration #  7     ecut=    30.00 Ry     beta= 0.70
     Davidson diagonalization with overlap
     ethr =  2.78E-08,  avg # of iterations =  3.2

     total cpu time spent up to now is       32.4 secs

     total energy              =    -333.17960686 Ry
     estimated scf accuracy    <       0.00000137 Ry

     iteration #  8     ecut=    30.00 Ry     beta= 0.70
     Davidson diagonalization with overlap
     ethr =  3.12E-09,  avg # of iterations =  4.7

     total cpu time spent up to now is       32.9 secs

     total energy              =    -333.17960737 Ry
     estimated scf accuracy    <       0.00000006 Ry

     iteration #  9     ecut=    30.00 Ry     beta= 0.70
     Davidson diagonalization with overlap
     ethr =  1.40E-10,  avg # of iterations =  4.2

     total cpu time spent up to now is       33.3 secs

     total energy              =    -333.17960736 Ry
     estimated scf accuracy    <       0.00000005 Ry

     iteration # 10     ecut=    30.00 Ry     beta= 0.70
     Davidson diagonalization with overlap
     ethr =  1.18E-10,  avg # of iterations =  4.3

     total cpu time spent up to now is       33.7 secs

     End of self-consistent calculation

          k = 0.1250 0.1250 0.1250 (  1090 PWs)   bands (ev):

   -44.6231 -21.2584 -21.2308 -21.2298  -6.3353  -5.2648  -5.2376  -3.9663
    -3.9595  -3.9477  -3.7801  -3.7697   4.6468   7.2961   7.3118   8.0910
     9.0571   9.1321   9.8098   9.8606  10.0300  10.1703

          k = 0.1250 0.1250 0.3750 (  1095 PWs)   bands (ev):

   -44.6218 -21.3166 -21.2286 -21.2276  -5.9085  -5.1161  -5.1082  -4.0233
    -3.9610  -3.9429  -3.8673  -3.7503   3.9078   6.8290   7.2693   7.8244
     8.4818   8.6959   9.4249   9.9156  10.1581  10.9215

          k = 0.1250 0.3750 0.3750 (  1087 PWs)   bands (ev):

   -44.6205 -21.3130 -21.2842 -21.2260  -5.6940  -5.0205  -4.9425  -3.9983
    -3.9543  -3.9000  -3.8078  -3.6454   3.5459   6.7321   6.9239   7.1841
     7.5033   8.7086   9.4126   9.5223  10.0768  10.7062

          k = 0.3750 0.3750 0.3750 (  1082 PWs)   bands (ev):

   -44.6193 -21.3105 -21.2818 -21.2816  -5.3134  -5.1438  -5.1247  -3.9110
    -3.9036  -3.6210  -3.5571  -3.5392   4.1494   5.9328   5.9532   6.6986
     7.1047   7.1190   8.0326  10.6541  10.6923  10.7587

          k = 0.3750-0.1250 0.1250 (  1095 PWs)   bands (ev):

   -44.6218 -21.2879 -21.2561 -21.2281  -5.9330  -5.1439  -5.0751  -4.0229
    -3.9567  -3.9457  -3.8693  -3.7442   3.9130   6.8707   7.3701   7.8475
     8.4463   8.7895   9.3465   9.9230  10.0652  10.8705

          k = 0.3750-0.3750 0.1250 (  1087 PWs)   bands (ev):

   -44.6205 -21.2848 -21.2839 -21.2540  -5.7359  -5.0013  -4.9301  -3.9922
    -3.9495  -3.8886  -3.8026  -3.6739   3.5450   6.8251   6.8827   7.1910
     7.4894   8.6942   9.5019   9.5122  10.0462  10.7534

     highest occupied level (ev):    10.9215

!    total energy              =    -333.17960737 Ry
     estimated scf accuracy    <          1.6E-09 Ry

     The total energy is the sum of the following terms:
     one-electron contribution =     -76.77556056 Ry
     hartree contribution      =      66.37890134 Ry
     xc contribution           =     -49.65384247 Ry
     ewald contribution        =    -273.12910567 Ry

     convergence has been achieved in  10 iterations

     Forces acting on atoms (cartesian axes, Ry/au):

     atom    1 type  2   force =     0.00000000    0.00000000   -0.01914826
     atom    2 type  3   force =     0.00000000    0.00000000    0.02902883
     atom    3 type  1   force =     0.00000000    0.00000000   -0.01092527
     atom    4 type  1   force =     0.00000000    0.00000000   -0.01092527
     atom    5 type  1   force =     0.00000000    0.00000000    0.01196996

     Total force =     0.019545     Total SCF correction =     0.000014


     Computing stress (Cartesian axis) and pressure

          total   stress  (Ry/bohr**3)                   (kbar)     P=       -9.70
  -0.00007989   0.00000000   0.00000000          -11.75        0.00        0.00
   0.00000000  -0.00007989   0.00000000            0.00      -11.75        0.00
   0.00000000   0.00000000  -0.00003802            0.00        0.00       -5.59

     Energy error            =      7.0E-04 Ry
     Gradient error          =      1.2E-02 Ry/Bohr

     number of scf cycles    =   6
     number of bfgs steps    =   5

     energy             old  =    -333.1789069358 Ry
     energy             new  =    -333.1796073680 Ry

     CASE: energy            _new < energy            _old

     new trust radius        =       0.0736750867 bohr
     new conv_thr            =       0.0000000070 Ry


ATOMIC_POSITIONS (angstrom)
Pb               0.0000000000        0.0000000000        0.0000000000    0   0   0
Ti               1.9375000000        1.9375000000        1.7437500000    0   0   0
O                0.0000000000        1.9375000000        1.8374223837
O                1.9375000000        0.0000000000        1.8374223837
O                1.9375000000        1.9375000000       -0.1300091551


     Message from routine punch:
     Nothing written, as per user request (disk_io='none')
     NEW-OLD atomic charge density approx. for the potential

     total cpu time spent up to now is       35.2 secs

     Self-consistent Calculation

     iteration #  1     ecut=    30.00 Ry     beta= 0.70
     Davidson diagonalization with overlap
     ethr =  1.00E-06,  avg # of iterations =  9.3

     total cpu time spent up to now is       35.8 secs

     total energy              =    -333.18036535 Ry
     estimated scf accuracy    <       0.00105844 Ry

     iteration #  2     ecut=    30.00 Ry     beta= 0.70
     Davidson diagonalization with overlap
     ethr =  2.41E-06,  avg # of iterations =  3.3

     total cpu time spent up to now is       36.2 secs

     total energy              =    -333.18046544 Ry
     estimated scf accuracy    <       0.00023873 Ry

     iteration #  3     ecut=    30.00 Ry     beta= 0.70
     Davidson diagonalization with overlap
     ethr =  5.43E-07,  avg # of iterations =  4.7

     total cpu time spent up to now is       36.6 secs

     total energy              =    -333.18051617 Ry
     estimated scf accuracy    <       0.00019406 Ry

     iteration #  4     ecut=    30.00 Ry     beta= 0.70
     Davidson diagonalization with overlap
     ethr =  4.41E-07,  avg # of iterations =  4.0

     total cpu time spent up to now is       37.0 secs

     total energy              =    -333.18055277 Ry
     estimated scf accuracy    <       0.00000445 Ry

     iteration #  5     ecut=    30.00 Ry     beta= 0.70
     Davidson diagonalization with overlap
     ethr =  1.01E-08,  avg # of iterations =  6.3

     total cpu time spent up to now is       37.5 secs

     total energy              =    -333.18055498 Ry
     estimated scf accuracy    <       0.00001000 Ry

     iteration #  6     ecut=    30.00 Ry     beta= 0.70
     Davidson diagonalization with overlap
     ethr =  1.01E-08,  avg # of iterations =  4.3

     total cpu time spent up to now is       37.9 secs

     total energy              =    -333.18055583 Ry
     estimated scf accuracy    <       0.00000092 Ry

     iteration #  7     ecut=    30.00 Ry     beta= 0.70
     Davidson diagonalization with overlap
     ethr =  2.08E-09,  avg # of iterations =  4.7

     total cpu time spent up to now is       38.4 secs

     total energy              =    -333.18055609 Ry
     estimated scf accuracy    <       0.00000012 Ry

     iteration #  8     ecut=    30.00 Ry     beta= 0.70
     Davidson diagonalization with overlap
     ethr =  2.62E-10,  avg # of iterations =  2.0

     total cpu time spent up to now is       38.8 secs

     total energy              =    -333.18055608 Ry
     estimated scf accuracy    <       0.00000006 Ry

     iteration #  9     ecut=    30.00 Ry     beta= 0.70
     Davidson diagonalization with overlap
     ethr =  1.39E-10,  avg # of iterations =  4.7

     total cpu time spent up to now is       39.2 secs

     End of self-consistent calculation

          k = 0.1250 0.1250 0.1250 (  1090 PWs)   bands (ev):

   -44.6485 -21.2674 -21.2587 -21.2577  -6.3442  -5.2707  -5.2607  -3.9557
    -3.9511  -3.9385  -3.7727  -3.7570   4.6540   7.2993   7.3073   8.1008
     9.0901   9.1338   9.8789   9.8904   9.9902  10.1371

          k = 0.1250 0.1250 0.3750 (  1095 PWs)   bands (ev):

   -44.6473 -21.3252 -21.2566 -21.2556  -5.9348  -5.1540  -5.0892  -4.0108
    -3.9493  -3.9343  -3.8540  -3.7412   3.9297   6.8391   7.3151   7.8231
     8.4445   8.7221   9.3967   9.9334  10.1208  10.9015

          k = 0.1250 0.3750 0.3750 (  1087 PWs)   bands (ev):

   -44.6460 -21.3217 -21.3125 -21.2540  -5.7194  -5.0209  -4.9488  -3.9872
    -3.9441  -3.8889  -3.7965  -3.6360   3.5560   6.7674   6.8744   7.1766
     7.4890   8.6844   9.4150   9.5058  10.0831  10.7173

          k = 0.3750 0.3750 0.3750 (  1082 PWs)   bands (ev):

   -44.6447 -21.3192 -21.3101 -21.3099  -5.3163  -5.1465  -5.1380  -3.8998
    -3.8948  -3.6106  -3.5456  -3.5307   4.1390   5.9339   5.9445   6.7065
     7.0602   7.0653   8.0523  10.6721  10.6806  10.7534

          k = 0.3750-0.1250 0.1250 (  1095 PWs)   bands (ev):

   -44.6472 -21.3162 -21.2651 -21.2561  -5.9346  -5.1552  -5.0981  -4.0139
    -3.9467  -3.9357  -3.8520  -3.7331   3.9169   6.8414   7.3512   7.8480
     8.4473   8.7608   9.3642   9.9272  10.0917  10.8778

          k = 0.3750-0.3750 0.1250 (  1087 PWs)   bands (ev):

   -44.6460 -21.3130 -21.3121 -21.2629  -5.7147  -5.0271  -4.9605  -3.9840
    -3.9370  -3.8731  -3.7866  -3.6599   3.5315   6.8076   6.8557   7.1845
     7.4819   8.6920   9.4813   9.5044  10.0640  10.7253

     highest occupied level (ev):    10.9015

!    total energy              =    -333.18055610 Ry
     estimated scf accuracy    <          4.7E-09 Ry

     The total energy is the sum of the following terms:
     one-electron contribution =     -76.95204932 Ry
     hartree contribution      =      66.46016954 Ry
     xc contribution           =     -49.65430416 Ry
     ewald contribution        =    -273.03437215 Ry

     convergence has been achieved in   9 iterations

     Forces acting on atoms (cartesian axes, Ry/au):

     atom    1 type  2   force =     0.00000000    0.00000000   -0.01685624
     atom    2 type  3   force =     0.00000000    0.00000000    0.02445107
     atom    3 type  1   force =     0.00000000    0.00000000   -0.00964489
     atom    4 type  1   force =     0.00000000    0.00000000   -0.00964489
     atom    5 type  1   force =     0.00000000    0.00000000    0.01169495

     Total force =     0.017967     Total SCF correction =     0.000014


     Computing stress (Cartesian axis) and pressure

          total   stress  (Ry/bohr**3)                   (kbar)     P=       -9.47
  -0.00006373   0.00000000   0.00000000           -9.37        0.00        0.00
   0.00000000  -0.00006373   0.00000000            0.00       -9.37        0.00
   0.00000000   0.00000000  -0.00006577            0.00        0.00       -9.67

     Energy error            =      9.5E-04 Ry
     Gradient error          =      1.2E-02 Ry/Bohr

     number of scf cycles    =   7
     number of bfgs steps    =   6

     energy             old  =    -333.1796073680 Ry
     energy             new  =    -333.1805560967 Ry

     CASE: energy            _new < energy            _old

     new trust radius        =       0.1105126301 bohr
     new conv_thr            =       0.0000000095 Ry


ATOMIC_POSITIONS (angstrom)
Pb               0.0000000000        0.0000000000        0.0000000000    0   0   0
Ti               1.9375000000        1.9375000000        1.7437500000    0   0   0
O                0.0000000000        1.9375000000        1.7789416184
O                1.9375000000        0.0000000000        1.7789416184
O                1.9375000000        1.9375000000       -0.1657520643


     Message from routine punch:
     Nothing written, as per user request (disk_io='none')
     NEW-OLD atomic charge density approx. for the potential

     total cpu time spent up to now is       40.7 secs

     Self-consistent Calculation

     iteration #  1     ecut=    30.00 Ry     beta= 0.70
     Davidson diagonalization with overlap
     ethr =  1.00E-06,  avg # of iterations = 10.0

     total cpu time spent up to now is       41.3 secs

     total energy              =    -333.18139743 Ry
     estimated scf accuracy    <       0.00225569 Ry

     iteration #  2     ecut=    30.00 Ry     beta= 0.70
     Davidson diagonalization with overlap
     ethr =  5.13E-06,  avg # of iterations =  3.0

     total cpu time spent up to now is       41.7 secs

     total energy              =    -333.18167863 Ry
     estimated scf accuracy    <       0.00029512 Ry

     iteration #  3     ecut=    30.00 Ry     beta= 0.70
     Davidson diagonalization with overlap
     ethr =  6.71E-07,  avg # of iterations =  4.5

     total cpu time spent up to now is       42.1 secs

     total energy              =    -333.18173162 Ry
     estimated scf accuracy    <       0.00020203 Ry

     iteration #  4     ecut=    30.00 Ry     beta= 0.70
     Davidson diagonalization with overlap
     ethr =  4.59E-07,  avg # of iterations =  4.5

     total cpu time spent up to now is       42.5 secs

     total energy              =    -333.18177606 Ry
     estimated scf accuracy    <       0.00002740 Ry

     iteration #  5     ecut=    30.00 Ry     beta= 0.70
     Davidson diagonalization with overlap
     ethr =  6.23E-08,  avg # of iterations =  4.5

     total cpu time spent up to now is       42.9 secs

     total energy              =    -333.18178100 Ry
     estimated scf accuracy    <       0.00000573 Ry

     iteration #  6     ecut=    30.00 Ry     beta= 0.70
     Davidson diagonalization with overlap
     ethr =  1.30E-08,  avg # of iterations =  4.3

     total cpu time spent up to now is       43.3 secs

     total energy              =    -333.18178249 Ry
     estimated scf accuracy    <       0.00000050 Ry

     iteration #  7     ecut=    30.00 Ry     beta= 0.70
     Davidson diagonalization with overlap
     ethr =  1.13E-09,  avg # of iterations =  3.8

     total cpu time spent up to now is       43.8 secs

     total energy              =    -333.18178253 Ry
     estimated scf accuracy    <       0.00000010 Ry

     iteration #  8     ecut=    30.00 Ry     beta= 0.70
     Davidson diagonalization with overlap
     ethr =  2.37E-10,  avg # of iterations =  5.0

     total cpu time spent up to now is       44.2 secs

     total energy              =    -333.18178258 Ry
     estimated scf accuracy    <       0.00000003 Ry

     iteration #  9     ecut=    30.00 Ry     beta= 0.70
     Davidson diagonalization with overlap
     ethr =  6.66E-11,  avg # of iterations =  2.0

     total cpu time spent up to now is       44.5 secs

     total energy              =    -333.18178258 Ry
     estimated scf accuracy    <       0.00000001 Ry

     iteration # 10     ecut=    30.00 Ry     beta= 0.70
     Davidson diagonalization with overlap
     ethr =  2.50E-11,  avg # of iterations =  5.7

     total cpu time spent up to now is       45.0 secs

     End of self-consistent calculation

          k = 0.1250 0.1250 0.1250 (  1090 PWs)   bands (ev):

   -44.6773 -21.2907 -21.2896 -21.2801  -6.3665  -5.3223  -5.2532  -3.9364
    -3.9340  -3.9186  -3.7578  -3.7270   4.6643   7.2896   7.3020   8.1082
     9.1199   9.1241   9.8801   9.9465   9.9708  10.1005

          k = 0.1250 0.1250 0.3750 (  1095 PWs)   bands (ev):

   -44.6761 -21.3377 -21.2884 -21.2875  -5.9809  -5.2133  -5.0621  -3.9873
    -3.9276  -3.9156  -3.8227  -3.7236   3.9587   6.8523   7.3454   7.8019
     8.4109   8.7508   9.3546   9.9427  10.0654  10.8847

          k = 0.1250 0.3750 0.3750 (  1087 PWs)   bands (ev):

   -44.6748 -21.3448 -21.3341 -21.2858  -5.7622  -5.0552  -4.9385  -3.9660
    -3.9240  -3.8669  -3.7729  -3.6114   3.5728   6.7813   6.8325   7.1519
     7.4757   8.6467   9.3925   9.4990  10.0971  10.7257

          k = 0.3750 0.3750 0.3750 (  1082 PWs)   bands (ev):

   -44.6735 -21.3423 -21.3420 -21.3316  -5.3384  -5.1867  -5.1242  -3.8784
    -3.8761  -3.5933  -3.5217  -3.5090   4.1151   5.9077   5.9577   6.7009
     6.9981   7.0287   8.0980  10.6379  10.6864  10.7569

          k = 0.3750-0.1250 0.1250 (  1095 PWs)   bands (ev):

   -44.6761 -21.3483 -21.2880 -21.2779  -5.9486  -5.1793  -5.1320  -3.9955
    -3.9276  -3.9145  -3.8177  -3.7082   3.9214   6.8026   7.3235   7.8436
     8.4380   8.7292   9.3780   9.9201  10.1079  10.8940

          k = 0.3750-0.3750 0.1250 (  1087 PWs)   bands (ev):

   -44.6748 -21.3452 -21.3442 -21.2758  -5.6917  -5.0733  -5.0166  -3.9663
    -3.9118  -3.8397  -3.7516  -3.6359   3.5061   6.7782   6.8176   7.1760
     7.4801   8.6942   9.4591   9.4952  10.0935  10.6792

     highest occupied level (ev):    10.8940

!    total energy              =    -333.18178258 Ry
     estimated scf accuracy    <          8.8E-09 Ry

     The total energy is the sum of the following terms:
     one-electron contribution =     -77.30769661 Ry
     hartree contribution      =      66.62986717 Ry
     xc contribution           =     -49.65813160 Ry
     ewald contribution        =    -272.84582154 Ry

     convergence has been achieved in  10 iterations

     Forces acting on atoms (cartesian axes, Ry/au):

     atom    1 type  2   force =     0.00000000    0.00000000   -0.01426168
     atom    2 type  3   force =     0.00000000    0.00000000    0.02174292
     atom    3 type  1   force =     0.00000000    0.00000000   -0.00733184
     atom    4 type  1   force =     0.00000000    0.00000000   -0.00733184
     atom    5 type  1   force =     0.00000000    0.00000000    0.00718243

     Total force =     0.012613     Total SCF correction =     0.000017


     Computing stress (Cartesian axis) and pressure

          total   stress  (Ry/bohr**3)                   (kbar)     P=       -7.96
  -0.00004219   0.00000000   0.00000000           -6.21        0.00        0.00
   0.00000000  -0.00004219   0.00000000            0.00       -6.21        0.00
   0.00000000   0.00000000  -0.00007793            0.00        0.00      -11.46

     Energy error            =      1.2E-03 Ry
     Gradient error          =      7.3E-03 Ry/Bohr

     number of scf cycles    =   8
     number of bfgs steps    =   7

     energy             old  =    -333.1805560967 Ry
     energy             new  =    -333.1817825770 Ry

     CASE: energy            _new < energy            _old

     new trust radius        =       0.1657689451 bohr
     new conv_thr            =       0.0000000073 Ry


ATOMIC_POSITIONS (angstrom)
Pb               0.0000000000        0.0000000000        0.0000000000    0   0   0
Ti               1.9375000000        1.9375000000        1.7437500000    0   0   0
O                0.0000000000        1.9375000000        1.6912204703
O                1.9375000000        0.0000000000        1.6912204703
O                1.9375000000        1.9375000000       -0.2218466967


     Message from routine punch:
     Nothing written, as per user request (disk_io='none')
     NEW-OLD atomic charge density approx. for the potential

     total cpu time spent up to now is       46.4 secs

     Self-consistent Calculation

     iteration #  1     ecut=    30.00 Ry     beta= 0.70
     Davidson diagonalization with overlap
     ethr =  1.00E-06,  avg # of iterations = 11.3

     total cpu time spent up to now is       47.1 secs

     total energy              =    -333.18254929 Ry
     estimated scf accuracy    <       0.00508685 Ry

     iteration #  2     ecut=    30.00 Ry     beta= 0.70
     Davidson diagonalization with overlap
     ethr =  1.16E-05,  avg # of iterations =  2.2

     total cpu time spent up to now is       47.5 secs

     total energy              =    -333.18324925 Ry
     estimated scf accuracy    <       0.00034245 Ry

     iteration #  3     ecut=    30.00 Ry     beta= 0.70
     Davidson diagonalization with overlap
     ethr =  7.78E-07,  avg # of iterations =  4.2

     total cpu time spent up to now is       47.9 secs

     total energy              =    -333.18331594 Ry
     estimated scf accuracy    <       0.00009572 Ry

     iteration #  4     ecut=    30.00 Ry     beta= 0.70
     Davidson diagonalization with overlap
     ethr =  2.18E-07,  avg # of iterations =  4.3

     total cpu time spent up to now is       48.3 secs

     total energy              =    -333.18333509 Ry
     estimated scf accuracy    <       0.00003306 Ry

     iteration #  5     ecut=    30.00 Ry     beta= 0.70
     Davidson diagonalization with overlap
     ethr =  7.51E-08,  avg # of iterations =  4.3

     total cpu time spent up to now is       48.7 secs

     total energy              =    -333.18334324 Ry
     estimated scf accuracy    <       0.00000624 Ry

     iteration #  6     ecut=    30.00 Ry     beta= 0.70
     Davidson diagonalization with overlap
     ethr =  1.42E-08,  avg # of iterations =  3.8

     total cpu time spent up to now is       49.1 secs

     total energy              =    -333.18334389 Ry
     estimated scf accuracy    <       0.00000082 Ry

     iteration #  7     ecut=    30.00 Ry     beta= 0.70
     Davidson diagonalization with overlap
     ethr =  1.87E-09,  avg # of iterations =  5.2

     total cpu time spent up to now is       49.5 secs

     total energy              =    -333.18334428 Ry
     estimated scf accuracy    <       0.00000030 Ry

     iteration #  8     ecut=    30.00 Ry     beta= 0.70
     Davidson diagonalization with overlap
     ethr =  6.90E-10,  avg # of iterations =  2.7

     total cpu time spent up to now is       49.9 secs

     total energy              =    -333.18334427 Ry
     estimated scf accuracy    <       0.00000010 Ry

     iteration #  9     ecut=    30.00 Ry     beta= 0.70
     Davidson diagonalization with overlap
     ethr =  2.22E-10,  avg # of iterations =  4.8

     total cpu time spent up to now is       50.3 secs

     total energy              =    -333.18334431 Ry
     estimated scf accuracy    <       0.00000002 Ry

     iteration # 10     ecut=    30.00 Ry     beta= 0.70
     Davidson diagonalization with overlap
     ethr =  5.46E-11,  avg # of iterations =  2.3

     total cpu time spent up to now is       50.7 secs

     total energy              =    -333.18334431 Ry
     estimated scf accuracy    <          8.4E-09 Ry

     iteration # 11     ecut=    30.00 Ry     beta= 0.70
     Davidson diagonalization with overlap
     ethr =  1.92E-11,  avg # of iterations =  4.8

     total cpu time spent up to now is       51.1 secs

     End of self-consistent calculation

          k = 0.1250 0.1250 0.1250 (  1090 PWs)   bands (ev):

   -44.7050 -21.3209 -21.3197 -21.3003  -6.4176  -5.4021  -5.2424  -3.8995
    -3.8974  -3.8748  -3.7266  -3.6574   4.6796   7.2426   7.2929   8.1042
     9.0898   9.1210   9.8148   9.8803   9.9271  10.1904

          k = 0.1250 0.1250 0.3750 (  1095 PWs)   bands (ev):

   -44.7038 -21.3577 -21.3186 -21.3176  -6.0605  -5.3045  -5.0290  -3.9429
    -3.8861  -3.8731  -3.7497  -3.6888   3.9931   6.8642   7.2933   7.7344
     8.4248   8.7487   9.3075   9.9076   9.9958  10.8931

          k = 0.1250 0.3750 0.3750 (  1087 PWs)   bands (ev):

   -44.7025 -21.3750 -21.3540 -21.3160  -5.8335  -5.1422  -4.9198  -3.9245
    -3.8820  -3.8231  -3.7220  -3.5507   3.6023   6.6935   6.8555   7.1039
     7.4564   8.5958   9.3341   9.4937  10.1384  10.7145

          k = 0.3750 0.3750 0.3750 (  1082 PWs)   bands (ev):

   -44.7012 -21.3726 -21.3722 -21.3515  -5.4011  -5.2618  -5.1022  -3.8359
    -3.8351  -3.5618  -3.4736  -3.4557   4.0615   5.8758   5.9668   6.6576
     6.9683   7.0235   8.2019  10.5582  10.6791  10.7499

          k = 0.3750-0.1250 0.1250 (  1095 PWs)   bands (ev):

   -44.7038 -21.3785 -21.3181 -21.2981  -5.9925  -5.2474  -5.1664  -3.9560
    -3.8891  -3.8694  -3.7492  -3.6507   3.9268   6.7561   7.2881   7.8237
     8.3965   8.7129   9.3714   9.8846  10.0737  10.9290

          k = 0.3750-0.3750 0.1250 (  1087 PWs)   bands (ev):

   -44.7025 -21.3754 -21.3744 -21.2960  -5.6808  -5.1535  -5.1190  -3.9265
    -3.8621  -3.7700  -3.6746  -3.5931   3.4575   6.7291   6.7741   7.1732
     7.5002   8.7060   9.4470   9.4807  10.1402  10.6026

     highest occupied level (ev):    10.9290

!    total energy              =    -333.18334431 Ry
     estimated scf accuracy    <          6.5E-10 Ry

     The total energy is the sum of the following terms:
     one-electron contribution =     -78.00588592 Ry
     hartree contribution      =      66.97311988 Ry
     xc contribution           =     -49.66991543 Ry
     ewald contribution        =    -272.48066284 Ry

     convergence has been achieved in  11 iterations

     Forces acting on atoms (cartesian axes, Ry/au):

     atom    1 type  2   force =     0.00000000    0.00000000   -0.01278185
     atom    2 type  3   force =     0.00000000    0.00000000    0.02223447
     atom    3 type  1   force =     0.00000000    0.00000000   -0.00367059
     atom    4 type  1   force =     0.00000000    0.00000000   -0.00367059
     atom    5 type  1   force =     0.00000000    0.00000000   -0.00211144

     Total force =     0.005604     Total SCF correction =     0.000009


     Computing stress (Cartesian axis) and pressure

          total   stress  (Ry/bohr**3)                   (kbar)     P=       -2.10
  -0.00000518   0.00000000   0.00000000           -0.76        0.00        0.00
   0.00000000  -0.00000518   0.00000000            0.00       -0.76        0.00
   0.00000000   0.00000000  -0.00003242            0.00        0.00       -4.77

     Energy error            =      1.6E-03 Ry
     Gradient error          =      3.7E-03 Ry/Bohr

     number of scf cycles    =   9
     number of bfgs steps    =   8

     energy             old  =    -333.1817825770 Ry
     energy             new  =    -333.1833443076 Ry

     CASE: energy            _new < energy            _old

     new trust radius        =       0.2486534177 bohr
     new conv_thr            =       0.0000000037 Ry


ATOMIC_POSITIONS (angstrom)
Pb               0.0000000000        0.0000000000        0.0000000000    0   0   0
Ti               1.9375000000        1.9375000000        1.7437500000    0   0   0
O                0.0000000000        1.9375000000        1.5596387483
O                1.9375000000        0.0000000000        1.5596387483
O                1.9375000000        1.9375000000       -0.3113028248


     Message from routine punch:
     Nothing written, as per user request (disk_io='none')
     NEW-OLD atomic charge density approx. for the potential

     total cpu time spent up to now is       52.6 secs

     Self-consistent Calculation

     iteration #  1     ecut=    30.00 Ry     beta= 0.70
     Davidson diagonalization with overlap
     ethr =  1.00E-06,  avg # of iterations = 12.8

     total cpu time spent up to now is       53.3 secs

     total energy              =    -333.18279459 Ry
     estimated scf accuracy    <       0.01208698 Ry

     iteration #  2     ecut=    30.00 Ry     beta= 0.70
     Davidson diagonalization with overlap
     ethr =  2.75E-05,  avg # of iterations =  2.2

     total cpu time spent up to now is       53.6 secs

     total energy              =    -333.18432555 Ry
     estimated scf accuracy    <       0.00078356 Ry

     iteration #  3     ecut=    30.00 Ry     beta= 0.70
     Davidson diagonalization with overlap
     ethr =  1.78E-06,  avg # of iterations =  3.5

     total cpu time spent up to now is       54.1 secs

     total energy              =    -333.18446613 Ry
     estimated scf accuracy    <       0.00048911 Ry

     iteration #  4     ecut=    30.00 Ry     beta= 0.70
     Davidson diagonalization with overlap
     ethr =  1.11E-06,  avg # of iterations =  4.2

     total cpu time spent up to now is       54.5 secs

     total energy              =    -333.18457918 Ry
     estimated scf accuracy    <       0.00003662 Ry

     iteration #  5     ecut=    30.00 Ry     beta= 0.70
     Davidson diagonalization with overlap
     ethr =  8.32E-08,  avg # of iterations =  4.0

     total cpu time spent up to now is       54.9 secs

     total energy              =    -333.18458734 Ry
     estimated scf accuracy    <       0.00000357 Ry

     iteration #  6     ecut=    30.00 Ry     beta= 0.70
     Davidson diagonalization with overlap
     ethr =  8.12E-09,  avg # of iterations =  5.7

     total cpu time spent up to now is       55.3 secs

     total energy              =    -333.18458875 Ry
     estimated scf accuracy    <       0.00000265 Ry

     iteration #  7     ecut=    30.00 Ry     beta= 0.70
     Davidson diagonalization with overlap
     ethr =  6.03E-09,  avg # of iterations =  4.3

     total cpu time spent up to now is       55.7 secs

     total energy              =    -333.18458922 Ry
     estimated scf accuracy    <       0.00000008 Ry

     iteration #  8     ecut=    30.00 Ry     beta= 0.70
     Davidson diagonalization with overlap
     ethr =  1.90E-10,  avg # of iterations =  5.7

     total cpu time spent up to now is       56.2 secs

     total energy              =    -333.18458927 Ry
     estimated scf accuracy    <       0.00000012 Ry

     iteration #  9     ecut=    30.00 Ry     beta= 0.70
     Davidson diagonalization with overlap
     ethr =  1.90E-10,  avg # of iterations =  4.2

     total cpu time spent up to now is       56.6 secs

     End of self-consistent calculation

          k = 0.1250 0.1250 0.1250 (  1090 PWs)   bands (ev):

   -44.6837 -21.3162 -21.2986 -21.2979  -6.5227  -5.5219  -5.2413  -3.8292
    -3.8257  -3.7875  -3.6664  -3.5035   4.7014   7.1140   7.2644   8.0792
     9.0099   9.0203   9.6130   9.6969   9.8601  10.2758

          k = 0.1250 0.1250 0.3750 (  1095 PWs)   bands (ev):

   -44.6825 -21.3736 -21.2967 -21.2958  -6.1908  -5.4398  -5.0099  -3.8643
    -3.8077  -3.7860  -3.6258  -3.5869   4.0206   6.8414   7.0500   7.6106
     8.5346   8.6146   9.2833   9.7780   9.8978  10.9727

          k = 0.1250 0.3750 0.3750 (  1087 PWs)   bands (ev):

   -44.6812 -21.3700 -21.3522 -21.2941  -5.9465  -5.3070  -4.9303  -3.8486
    -3.7970  -3.7413  -3.6177  -3.4154   3.6504   6.5204   6.8649   7.0745
     7.3847   8.5615   9.2433   9.4273  10.2416  10.6383

          k = 0.3750 0.3750 0.3750 (  1082 PWs)   bands (ev):

   -44.6799 -21.3674 -21.3497 -21.3496  -5.5338  -5.4005  -5.0951  -3.7562
    -3.7507  -3.5091  -3.3789  -3.3356   3.9420   5.8419   5.9579   6.5586
     7.0706   7.1047   8.4219  10.4316  10.5866  10.6735

          k = 0.3750-0.1250 0.1250 (  1095 PWs)   bands (ev):

   -44.6825 -21.3561 -21.3136 -21.2962  -6.0949  -5.3905  -5.2174  -3.8748
    -3.8150  -3.7832  -3.6269  -3.5163   3.9295   6.7234   7.2444   7.7670
     8.3014   8.7441   9.2856   9.7774   9.9042  10.9786

          k = 0.3750-0.3750 0.1250 (  1087 PWs)   bands (ev):

   -44.6812 -21.3530 -21.3519 -21.3111  -5.7270  -5.2972  -5.2812  -3.8428
    -3.7726  -3.6432  -3.5161  -3.5129   3.3614   6.6635   6.7654   7.1808
     7.5635   8.7331   9.4417   9.4633  10.2147  10.4759

     highest occupied level (ev):    10.9786

!    total energy              =    -333.18458929 Ry
     estimated scf accuracy    <          2.3E-09 Ry

     The total energy is the sum of the following terms:
     one-electron contribution =     -79.47337271 Ry
     hartree contribution      =      67.71725986 Ry
     xc contribution           =     -49.70483153 Ry
     ewald contribution        =    -271.72364492 Ry

     convergence has been achieved in   9 iterations

     Forces acting on atoms (cartesian axes, Ry/au):

     atom    1 type  2   force =     0.00000000    0.00000000   -0.01593425
     atom    2 type  3   force =     0.00000000    0.00000000    0.01569562
     atom    3 type  1   force =     0.00000000    0.00000000    0.00384572
     atom    4 type  1   force =     0.00000000    0.00000000    0.00384572
     atom    5 type  1   force =     0.00000000    0.00000000   -0.00745281

     Total force =     0.009226     Total SCF correction =     0.000061


     Computing stress (Cartesian axis) and pressure

          total   stress  (Ry/bohr**3)                   (kbar)     P=       15.44
   0.00005345   0.00000000   0.00000000            7.86        0.00        0.00
   0.00000000   0.00005345   0.00000000            0.00        7.86        0.00
   0.00000000   0.00000000   0.00020788            0.00        0.00       30.58

     Energy error            =      1.2E-03 Ry
     Gradient error          =      7.5E-03 Ry/Bohr

     number of scf cycles    =  10
     number of bfgs steps    =   9

     energy             old  =    -333.1833443076 Ry
     energy             new  =    -333.1845892909 Ry

     CASE: energy            _new < energy            _old

     new trust radius        =       0.0551943605 bohr
     new conv_thr            =       0.0000000075 Ry


ATOMIC_POSITIONS (angstrom)
Pb               0.0000000000        0.0000000000        0.0000000000    0   0   0
Ti               1.9375000000        1.9375000000        1.7437500000    0   0   0
O                0.0000000000        1.9375000000        1.5888463460
O                1.9375000000        0.0000000000        1.5888463460
O                1.9375000000        1.9375000000       -0.2937581391


     Message from routine punch:
     Nothing written, as per user request (disk_io='none')
     NEW-OLD atomic charge density approx. for the potential

     total cpu time spent up to now is       58.1 secs

     Self-consistent Calculation

     iteration #  1     ecut=    30.00 Ry     beta= 0.70
     Davidson diagonalization with overlap
     ethr =  1.00E-06,  avg # of iterations =  9.7

     total cpu time spent up to now is       58.6 secs

     total energy              =    -333.18453330 Ry
     estimated scf accuracy    <       0.00057894 Ry

     iteration #  2     ecut=    30.00 Ry     beta= 0.70
     Davidson diagonalization with overlap
     ethr =  1.32E-06,  avg # of iterations =  2.2

     total cpu time spent up to now is       59.0 secs

     total energy              =    -333.18461499 Ry
     estimated scf accuracy    <       0.00004287 Ry

     iteration #  3     ecut=    30.00 Ry     beta= 0.70
     Davidson diagonalization with overlap
     ethr =  9.74E-08,  avg # of iterations =  3.3

     total cpu time spent up to now is       59.4 secs

     total energy              =    -333.18462423 Ry
     estimated scf accuracy    <       0.00001209 Ry

     iteration #  4     ecut=    30.00 Ry     beta= 0.70
     Davidson diagonalization with overlap
     ethr =  2.75E-08,  avg # of iterations =  4.7

     total cpu time spent up to now is       59.8 secs

     total energy              =    -333.18462679 Ry
     estimated scf accuracy    <       0.00000469 Ry

     iteration #  5     ecut=    30.00 Ry     beta= 0.70
     Davidson diagonalization with overlap
     ethr =  1.07E-08,  avg # of iterations =  4.3

     total cpu time spent up to now is       60.2 secs

     total energy              =    -333.18462789 Ry
     estimated scf accuracy    <       0.00000058 Ry

     iteration #  6     ecut=    30.00 Ry     beta= 0.70
     Davidson diagonalization with overlap
     ethr =  1.33E-09,  avg # of iterations =  3.2

     total cpu time spent up to now is       60.6 secs

     total energy              =    -333.18462795 Ry
     estimated scf accuracy    <       0.00000009 Ry

     iteration #  7     ecut=    30.00 Ry     beta= 0.70
     Davidson diagonalization with overlap
     ethr =  2.07E-10,  avg # of iterations =  4.8

     total cpu time spent up to now is       61.0 secs

     total energy              =    -333.18462799 Ry
     estimated scf accuracy    <       0.00000002 Ry

     iteration #  8     ecut=    30.00 Ry     beta= 0.70
     Davidson diagonalization with overlap
     ethr =  5.23E-11,  avg # of iterations =  4.2

     total cpu time spent up to now is       61.4 secs

     End of self-consistent calculation

          k = 0.1250 0.1250 0.1250 (  1090 PWs)   bands (ev):

   -44.6928 -21.3139 -21.3078 -21.3076  -6.4965  -5.4949  -5.2409  -3.8467
    -3.8434  -3.8092  -3.6816  -3.5429   4.6958   7.1481   7.2731   8.0878
     9.0288   9.0493   9.6713   9.7253   9.8786  10.2694

          k = 0.1250 0.1250 0.3750 (  1095 PWs)   bands (ev):

   -44.6915 -21.3705 -21.3064 -21.3055  -6.1604  -5.4096  -5.0121  -3.8830
    -3.8270  -3.8078  -3.6414  -3.6286   4.0149   6.8534   7.1150   7.6373
     8.5054   8.6533   9.2846   9.8094   9.9230  10.9496

          k = 0.1250 0.3750 0.3750 (  1087 PWs)   bands (ev):

   -44.6902 -21.3673 -21.3618 -21.3038  -5.9205  -5.2675  -4.9250  -3.8669
[...]
     9.0217   9.0355   9.6440   9.7151   9.8718  10.2698

          k = 0.1250 0.1250 0.3750 (  1095 PWs)   bands (ev):

   -44.6843 -21.3701 -21.2990 -21.2981  -6.1696  -5.4193  -5.0129  -3.8773
    -3.8211  -3.8013  -3.6373  -3.6150   4.0146   6.8498   7.0933   7.6301
     8.5132   8.6379   9.2817   9.7980   9.9150  10.9574

          k = 0.1250 0.3750 0.3750 (  1087 PWs)   bands (ev):

   -44.6830 -21.3666 -21.3546 -21.2964  -5.9285  -5.2803  -4.9285  -3.8613
    -3.8117  -3.7557  -3.6355  -3.4383   3.6423   6.5442   6.8682   7.0728
     7.4002   8.5639   9.2566   9.4353  10.2243  10.6490

          k = 0.3750 0.3750 0.3750 (  1082 PWs)   bands (ev):

   -44.6817 -21.3641 -21.3522 -21.3520  -5.5114  -5.3779  -5.0955  -3.7699
    -3.7652  -3.5192  -3.3955  -3.3559   3.9616   5.8449   5.9589   6.5747
     7.0476   7.0868   8.3855  10.4511  10.6017  10.6865

          k = 0.3750-0.1250 0.1250 (  1095 PWs)   bands (ev):

   -44.6843 -21.3585 -21.3103 -21.2984  -6.0772  -5.3672  -5.2111  -3.8889
    -3.8276  -3.7983  -3.6460  -3.5402   3.9295   6.7257   7.2497   7.7790
     8.3140   8.7362   9.2972   9.7949   9.9297  10.9710

          k = 0.3750-0.3750 0.1250 (  1087 PWs)   bands (ev):

   -44.6830 -21.3554 -21.3544 -21.3078  -5.7164  -5.2691  -5.2631  -3.8572
    -3.7875  -3.6630  -3.5423  -3.5284   3.3771   6.6722   6.7646   7.1776
     7.5510   8.7281   9.4446   9.4569  10.2010  10.4956

     highest occupied level (ev):    10.9710

!    total energy              =    -333.18468573 Ry
     estimated scf accuracy    <          3.7E-10 Ry

     The total energy is the sum of the following terms:
     one-electron contribution =     -79.24921604 Ry
     hartree contribution      =      67.60335883 Ry
     xc contribution           =     -49.69986900 Ry
     ewald contribution        =    -271.83895951 Ry

     convergence has been achieved in   8 iterations

     Forces acting on atoms (cartesian axes, Ry/au):

     atom    1 type  2   force =     0.00000000    0.00000000   -0.01503366
     atom    2 type  3   force =     0.00000000    0.00000000    0.01734861
     atom    3 type  1   force =     0.00000000    0.00000000    0.00149251
     atom    4 type  1   force =     0.00000000    0.00000000    0.00149251
     atom    5 type  1   force =     0.00000000    0.00000000   -0.00529997

     Total force =     0.005705     Total SCF correction =     0.000006


     Computing stress (Cartesian axis) and pressure

          total   stress  (Ry/bohr**3)                   (kbar)     P=       13.09
   0.00004714   0.00000000   0.00000000            6.93        0.00        0.00
   0.00000000   0.00004714   0.00000000            0.00        6.93        0.00
   0.00000000   0.00000000   0.00017273            0.00        0.00       25.41

     Energy error            =      5.8E-05 Ry
     Gradient error          =      5.3E-03 Ry/Bohr

     number of scf cycles    =  12
     number of bfgs steps    =  11

     energy             old  =    -333.1846279864 Ry
     energy             new  =    -333.1846857281 Ry

     CASE: energy            _new < energy            _old

     new trust radius        =       0.0197455008 bohr
     new conv_thr            =       0.0000000010 Ry


ATOMIC_POSITIONS (angstrom)
Pb               0.0000000000        0.0000000000        0.0000000000    0   0   0
Ti               1.9375000000        1.9375000000        1.7437500000    0   0   0
O                0.0000000000        1.9375000000        1.5717873409
O                1.9375000000        0.0000000000        1.5717873409
O                1.9375000000        1.9375000000       -0.3136483230


     Message from routine punch:
     Nothing written, as per user request (disk_io='none')
     NEW-OLD atomic charge density approx. for the potential

     total cpu time spent up to now is       67.9 secs

     Self-consistent Calculation

     iteration #  1     ecut=    30.00 Ry     beta= 0.70
     Davidson diagonalization with overlap
     ethr =  1.00E-06,  avg # of iterations =  5.3

     total cpu time spent up to now is       68.3 secs

     total energy              =    -333.18470579 Ry
     estimated scf accuracy    <       0.00008259 Ry

     iteration #  2     ecut=    30.00 Ry     beta= 0.70
     Davidson diagonalization with overlap
     ethr =  1.88E-07,  avg # of iterations =  4.3

     total cpu time spent up to now is       68.8 secs

     total energy              =    -333.18470761 Ry
     estimated scf accuracy    <       0.00004820 Ry

     iteration #  3     ecut=    30.00 Ry     beta= 0.70
     Davidson diagonalization with overlap
     ethr =  1.10E-07,  avg # of iterations =  4.3

     total cpu time spent up to now is       69.2 secs

     total energy              =    -333.18472003 Ry
     estimated scf accuracy    <       0.00002650 Ry

     iteration #  4     ecut=    30.00 Ry     beta= 0.70
     Davidson diagonalization with overlap
     ethr =  6.02E-08,  avg # of iterations =  3.3

     total cpu time spent up to now is       69.6 secs

     total energy              =    -333.18472230 Ry
     estimated scf accuracy    <       0.00000235 Ry

     iteration #  5     ecut=    30.00 Ry     beta= 0.70
     Davidson diagonalization with overlap
     ethr =  5.33E-09,  avg # of iterations =  5.3

     total cpu time spent up to now is       70.0 secs

     total energy              =    -333.18472428 Ry
     estimated scf accuracy    <       0.00000285 Ry

     iteration #  6     ecut=    30.00 Ry     beta= 0.70
     Davidson diagonalization with overlap
     ethr =  5.33E-09,  avg # of iterations =  1.3

     total cpu time spent up to now is       70.4 secs

     total energy              =    -333.18472394 Ry
     estimated scf accuracy    <       0.00000164 Ry

     iteration #  7     ecut=    30.00 Ry     beta= 0.70
     Davidson diagonalization with overlap
     ethr =  3.73E-09,  avg # of iterations =  2.8

     total cpu time spent up to now is       70.8 secs

     total energy              =    -333.18472414 Ry
     estimated scf accuracy    <       0.00000012 Ry

     iteration #  8     ecut=    30.00 Ry     beta= 0.70
     Davidson diagonalization with overlap
     ethr =  2.82E-10,  avg # of iterations =  5.0

     total cpu time spent up to now is       71.2 secs

     total energy              =    -333.18472420 Ry
     estimated scf accuracy    <       0.00000002 Ry

     iteration #  9     ecut=    30.00 Ry     beta= 0.70
     Davidson diagonalization with overlap
     ethr =  4.53E-11,  avg # of iterations =  2.3

     total cpu time spent up to now is       71.6 secs

     total energy              =    -333.18472420 Ry
     estimated scf accuracy    <       0.00000001 Ry

     iteration # 10     ecut=    30.00 Ry     beta= 0.70
     Davidson diagonalization with overlap
     ethr =  2.30E-11,  avg # of iterations =  3.8

     total cpu time spent up to now is       72.0 secs

     total energy              =    -333.18472420 Ry
     estimated scf accuracy    <          2.1E-09 Ry

     iteration # 11     ecut=    30.00 Ry     beta= 0.70
     Davidson diagonalization with overlap
     ethr =  4.75E-12,  avg # of iterations =  4.3

     total cpu time spent up to now is       72.4 secs

     End of self-consistent calculation

          k = 0.1250 0.1250 0.1250 (  1090 PWs)   bands (ev):

   -44.6742 -21.3103 -21.2895 -21.2887  -6.5091  -5.5086  -5.2453  -3.8390
    -3.8353  -3.7994  -3.6759  -3.5219   4.6963   7.1329   7.2678   8.0913
     9.0160   9.0202   9.6166   9.7071   9.8669  10.2658

          k = 0.1250 0.1250 0.3750 (  1095 PWs)   bands (ev):

   -44.6729 -21.3678 -21.2875 -21.2866  -6.1742  -5.4250  -5.0157  -3.8744
    -3.8178  -3.7981  -3.6360  -3.6063   4.0112   6.8471   7.0786   7.6286
     8.5153   8.6238   9.2767   9.7893   9.9101  10.9627

          k = 0.1250 0.3750 0.3750 (  1087 PWs)   bands (ev):

   -44.6716 -21.3642 -21.3432 -21.2849  -5.9327  -5.2881  -4.9332  -3.8586
    -3.8083  -3.7529  -3.6309  -3.4309   3.6436   6.5300   6.8671   7.0760
     7.3957   8.5647   9.2527   9.4220  10.2272  10.6412

          k = 0.3750 0.3750 0.3750 (  1082 PWs)   bands (ev):

   -44.6704 -21.3616 -21.3407 -21.3407  -5.5175  -5.3845  -5.0980  -3.7671
    -3.7615  -3.5195  -3.3914  -3.3494   3.9541   5.8419   5.9564   6.5701
     7.0585   7.0929   8.3972  10.4460  10.5887  10.6756

          k = 0.3750-0.1250 0.1250 (  1095 PWs)   bands (ev):

   -44.6729 -21.3471 -21.3078 -21.2870  -6.0820  -5.3741  -5.2167  -3.8854
    -3.8248  -3.7954  -3.6404  -3.5329   3.9293   6.7260   7.2460   7.7780
     8.3071   8.7381   9.2816   9.7859   9.9129  10.9712

          k = 0.3750-0.3750 0.1250 (  1087 PWs)   bands (ev):

   -44.6716 -21.3440 -21.3430 -21.3053  -5.7209  -5.2775  -5.2700  -3.8535
    -3.7841  -3.6578  -3.5340  -3.5260   3.3716   6.6705   6.7690   7.1750
     7.5519   8.7283   9.4371   9.4548  10.2035  10.4896

     highest occupied level (ev):    10.9712

!    total energy              =    -333.18472420 Ry
     estimated scf accuracy    <          1.9E-10 Ry

     The total energy is the sum of the following terms:
     one-electron contribution =     -79.36842778 Ry
     hartree contribution      =      67.66580462 Ry
     xc contribution           =     -49.70414892 Ry
     ewald contribution        =    -271.77795213 Ry

     convergence has been achieved in  11 iterations

     Forces acting on atoms (cartesian axes, Ry/au):

     atom    1 type  2   force =     0.00000000    0.00000000   -0.01529420
     atom    2 type  3   force =     0.00000000    0.00000000    0.01503344
     atom    3 type  1   force =     0.00000000    0.00000000    0.00095240
     atom    4 type  1   force =     0.00000000    0.00000000    0.00095240
     atom    5 type  1   force =     0.00000000    0.00000000   -0.00164403

     Total force =     0.002125     Total SCF correction =     0.000005


     Computing stress (Cartesian axis) and pressure

          total   stress  (Ry/bohr**3)                   (kbar)     P=       15.53
   0.00005333   0.00000000   0.00000000            7.84        0.00        0.00
   0.00000000   0.00005333   0.00000000            0.00        7.84        0.00
   0.00000000   0.00000000   0.00021004            0.00        0.00       30.90

     Energy error            =      3.8E-05 Ry
     Gradient error          =      1.6E-03 Ry/Bohr

     number of scf cycles    =  13
     number of bfgs steps    =  12

     energy             old  =    -333.1846857281 Ry
     energy             new  =    -333.1847242023 Ry

     CASE: energy            _new < energy            _old

     new trust radius        =       0.0058244470 bohr
     new conv_thr            =       0.0000000010 Ry


ATOMIC_POSITIONS (angstrom)
Pb               0.0000000000        0.0000000000        0.0000000000    0   0   0
Ti               1.9375000000        1.9375000000        1.7437500000    0   0   0
O                0.0000000000        1.9375000000        1.5748695055
O                1.9375000000        0.0000000000        1.5748695055
O                1.9375000000        1.9375000000       -0.3138440824


     Message from routine punch:
     Nothing written, as per user request (disk_io='none')
     NEW-OLD atomic charge density approx. for the potential

     total cpu time spent up to now is       74.0 secs

     Self-consistent Calculation

     iteration #  1     ecut=    30.00 Ry     beta= 0.70
     Davidson diagonalization with overlap
     ethr =  1.00E-06,  avg # of iterations =  3.0

     Threshold (ethr) on eigenvalues was too large:
     Diagonalizing with lowered threshold

     Davidson diagonalization with overlap
     ethr =  9.04E-09,  avg # of iterations =  5.2

     total cpu time spent up to now is       74.8 secs

     total energy              =    -333.18473141 Ry
     estimated scf accuracy    <       0.00000595 Ry

     iteration #  2     ecut=    30.00 Ry     beta= 0.70
     Davidson diagonalization with overlap
     ethr =  1.35E-08,  avg # of iterations =  2.8

     total cpu time spent up to now is       75.2 secs

     total energy              =    -333.18473235 Ry
     estimated scf accuracy    <       0.00000081 Ry

     iteration #  3     ecut=    30.00 Ry     beta= 0.70
     Davidson diagonalization with overlap
     ethr =  1.84E-09,  avg # of iterations =  3.5

     total cpu time spent up to now is       75.7 secs

     total energy              =    -333.18473291 Ry
     estimated scf accuracy    <       0.00000009 Ry

     iteration #  4     ecut=    30.00 Ry     beta= 0.70
     Davidson diagonalization with overlap
     ethr =  2.11E-10,  avg # of iterations =  5.0

     total cpu time spent up to now is       76.1 secs

     total energy              =    -333.18473293 Ry
     estimated scf accuracy    <       0.00000005 Ry

     iteration #  5     ecut=    30.00 Ry     beta= 0.70
     Davidson diagonalization with overlap
     ethr =  1.24E-10,  avg # of iterations =  3.5

     total cpu time spent up to now is       76.5 secs

     total energy              =    -333.18473294 Ry
     estimated scf accuracy    <          1.3E-09 Ry

     iteration #  6     ecut=    30.00 Ry     beta= 0.70
     Davidson diagonalization with overlap
     ethr =  3.02E-12,  avg # of iterations =  6.2

     total cpu time spent up to now is       77.0 secs

     total energy              =    -333.18473294 Ry
     estimated scf accuracy    <          1.5E-09 Ry

     iteration #  7     ecut=    30.00 Ry     beta= 0.70
     Davidson diagonalization with overlap
     ethr =  3.02E-12,  avg # of iterations =  4.3

     total cpu time spent up to now is       77.4 secs

     End of self-consistent calculation

          k = 0.1250 0.1250 0.1250 (  1090 PWs)   bands (ev):

   -44.6722 -21.3089 -21.2877 -21.2868  -6.5059  -5.5053  -5.2461  -3.8414
    -3.8376  -3.8024  -3.6782  -3.5265   4.6950   7.1373   7.2686   8.0941
     9.0176   9.0208   9.6186   9.7098   9.8686  10.2638

          k = 0.1250 0.1250 0.3750 (  1095 PWs)   bands (ev):

   -44.6710 -21.3664 -21.2856 -21.2847  -6.1702  -5.4214  -5.0168  -3.8769
    -3.8203  -3.8010  -3.6385  -3.6111   4.0091   6.8485   7.0857   7.6328
     8.5108   8.6263   9.2756   9.7923   9.9131  10.9602

          k = 0.1250 0.3750 0.3750 (  1087 PWs)   bands (ev):

   -44.6697 -21.3628 -21.3414 -21.2830  -5.9294  -5.2834  -4.9336  -3.8610
    -3.8111  -3.7557  -3.6341  -3.4348   3.6420   6.5328   6.8675   7.0764
     7.3984   8.5655   9.2549   9.4215  10.2238  10.6423

          k = 0.3750 0.3750 0.3750 (  1082 PWs)   bands (ev):

   -44.6684 -21.3602 -21.3389 -21.3388  -5.5136  -5.3806  -5.0985  -3.7698
    -3.7642  -3.5219  -3.3944  -3.3528   3.9571   5.8420   5.9562   6.5730
     7.0555   7.0902   8.3912  10.4495  10.5897  10.6766

          k = 0.3750-0.1250 0.1250 (  1095 PWs)   bands (ev):

   -44.6710 -21.3452 -21.3064 -21.2851  -6.0788  -5.3701  -5.2162  -3.8881
    -3.8272  -3.7984  -3.6438  -3.5371   3.9293   6.7267   7.2465   7.7805
     8.3087   8.7366   9.2813   9.7882   9.9156  10.9696

          k = 0.3750-0.3750 0.1250 (  1087 PWs)   bands (ev):

   -44.6697 -21.3422 -21.3411 -21.3039  -5.7193  -5.2726  -5.2670  -3.8561
    -3.7870  -3.6614  -3.5385  -3.5291   3.3741   6.6722   6.7698   7.1738
     7.5492   8.7273   9.4365   9.4530  10.2009  10.4929

     highest occupied level (ev):    10.9696

!    total energy              =    -333.18473294 Ry
     estimated scf accuracy    <          3.2E-10 Ry

     The total energy is the sum of the following terms:
     one-electron contribution =     -79.34007600 Ry
     hartree contribution      =      67.65173067 Ry
     xc contribution           =     -49.70383428 Ry
     ewald contribution        =    -271.79255333 Ry

     convergence has been achieved in   7 iterations

     Forces acting on atoms (cartesian axes, Ry/au):

     atom    1 type  2   force =     0.00000000    0.00000000   -0.01518666
     atom    2 type  3   force =     0.00000000    0.00000000    0.01497076
     atom    3 type  1   force =     0.00000000    0.00000000    0.00030885
     atom    4 type  1   force =     0.00000000    0.00000000    0.00030885
     atom    5 type  1   force =     0.00000000    0.00000000   -0.00040179

     Total force =     0.000593     Total SCF correction =     0.000016


     Computing stress (Cartesian axis) and pressure

          total   stress  (Ry/bohr**3)                   (kbar)     P=       15.41
   0.00005269   0.00000000   0.00000000            7.75        0.00        0.00
   0.00000000   0.00005269   0.00000000            0.00        7.75        0.00
   0.00000000   0.00000000   0.00020890            0.00        0.00       30.73

     Energy error            =      8.7E-06 Ry
     Gradient error          =      4.0E-04 Ry/Bohr

     bfgs converged in  14 scf cycles and  13 bfgs steps
     (criteria: energy <  1.0E-04 Ry, force <  1.0E-03 Ry/Bohr)

     End of BFGS Geometry Optimization

     Final energy             =    -333.1847329432 Ry

     File /home/bond/Work/Lab4/Problem2/PbTiO3_a_3.875_ecut_30_nk_4_displ_-0.05/pwscf.bfgs deleted, as requested
Begin final coordinates

ATOMIC_POSITIONS (angstrom)
Pb               0.0000000000        0.0000000000        0.0000000000    0   0   0
Ti               1.9375000000        1.9375000000        1.7437500000    0   0   0
O                0.0000000000        1.9375000000        1.5748695055
O                1.9375000000        0.0000000000        1.5748695055
O                1.9375000000        1.9375000000       -0.3138440824
End final coordinates


     Message from routine punch:
     Nothing written, as per user request (disk_io='none')

     init_run     :      1.12s CPU      1.27s WALL (       1 calls)
     electrons    :     48.70s CPU     56.18s WALL (      14 calls)
     update_pot   :      0.07s CPU      0.07s WALL (      13 calls)
     forces       :      1.87s CPU      2.18s WALL (      14 calls)
     stress       :     16.02s CPU     17.09s WALL (      14 calls)

     Called by init_run:
     wfcinit      :      0.07s CPU      0.09s WALL (       1 calls)
     potinit      :      0.09s CPU      0.10s WALL (       1 calls)
     hinit0       :      0.77s CPU      0.82s WALL (       1 calls)

     Called by electrons:
     c_bands      :     21.79s CPU     23.24s WALL (     130 calls)
     sum_band     :     14.97s CPU     18.11s WALL (     130 calls)
     v_of_rho     :      0.42s CPU      0.43s WALL (     143 calls)
     newd         :     12.32s CPU     15.53s WALL (     143 calls)
     mix_rho      :      0.23s CPU      0.25s WALL (     130 calls)

     Called by c_bands:
     init_us_2    :      0.62s CPU      0.67s WALL (    1734 calls)
     cegterg      :     20.44s CPU     21.83s WALL (     780 calls)

     Called by *egterg:
     cdiaghg      :      2.83s CPU      3.00s WALL (    4192 calls)
     h_psi        :     13.83s CPU     14.84s WALL (    4282 calls)
     s_psi        :      0.61s CPU      0.67s WALL (    4282 calls)
     g_psi        :      0.10s CPU      0.11s WALL (    3496 calls)

     Called by h_psi:
     h_psi:calbec :      1.08s CPU      1.17s WALL (    4282 calls)
     vloc_psi     :     11.95s CPU     12.79s WALL (    4282 calls)
     add_vuspsi   :      0.68s CPU      0.74s WALL (    4282 calls)

     General routines
     calbec       :      1.74s CPU      1.88s WALL (    6490 calls)
     fft          :      0.80s CPU      0.84s WALL (     914 calls)
     ffts         :      0.08s CPU      0.08s WALL (     273 calls)
     fftw         :     10.81s CPU     11.61s WALL (  125146 calls)
     interpolate  :      0.16s CPU      0.17s WALL (     143 calls)

     Parallel routines

     PWSCF        :   1m 9.43s CPU   1m18.78s WALL


   This run was terminated on:  12:32:19  21Oct2025            

=------------------------------------------------------------------------------=
   JOB DONE.
=------------------------------------------------------------------------------=
