
     Program PWSCF v.7.4.1 starts on 21Oct2025 at  1:39:19 

     This program is part of the open-source Quantum ESPRESSO suite
     for quantum simulation of materials; please cite
         "P. Giannozzi et al., J. Phys.:Condens. Matter 21 395502 (2009);
         "P. Giannozzi et al., J. Phys.:Condens. Matter 29 465901 (2017);
         "P. Giannozzi et al., J. Chem. Phys. 152 154105 (2020);
          URL http://www.quantum-espresso.org", 
     in publications or presentations arising from this work. More details at
     http://www.quantum-espresso.org/quote

     Parallel version (MPI), running on     2 processors

     MPI processes distributed on     1 nodes
     240 MiB available memory on the printing compute node when the environment starts

     Waiting for input...
     Reading input from standard input
Warning: card &CELL ignored
Warning: card / ignored

     Current dimensions of program PWSCF are:
     Max number of different atomic species (ntypx) = 10
     Max number of k-points (npk) =  40000
     Max angular momentum in pseudopotentials (lmaxx) =  4
     file O.pz-rrkjus.UPF: wavefunction(s)  2S renormalized
     Message from routine setup:
     using ibrav=0 with symmetry is DISCOURAGED, use correct ibrav instead

     R & G space division:  proc/nbgrp/npool/nimage =       2
     Subspace diagonalization in iterative solution of the eigenvalue problem:
     a serial algorithm will be used


     Parallelization info
     --------------------
     sticks:   dense  smooth     PW     G-vecs:    dense   smooth      PW
     Min         503     254     74                12202     4354     709
     Max         506     255     75                12203     4355     710
     Sum        1009     509    149                24405     8709    1419

     Using Slab Decomposition



     bravais-lattice index     =            0
     lattice parameter (alat)  =       7.3069  a.u.
     unit-cell volume          =     390.1277 (a.u.)^3
     number of atoms/cell      =            5
     number of atomic types    =            3
     number of electrons       =        44.00
     number of Kohn-Sham states=           22
     kinetic-energy cutoff     =      30.0000  Ry
     charge density cutoff     =     240.0000  Ry
     scf convergence threshold =      1.0E-07
     mixing beta               =       0.7000
     number of iterations used =            8  plain     mixing
     Exchange-correlation= SLA  PZ   NOGX NOGC
                           (   1   1   0   0   0   0   0)

     celldm(1)=   7.306941  celldm(2)=   0.000000  celldm(3)=   0.000000
     celldm(4)=   0.000000  celldm(5)=   0.000000  celldm(6)=   0.000000

     crystal axes: (cart. coord. in units of alat)
               a(1) = (   1.000000   0.000000   0.000000 )  
               a(2) = (   0.000000   1.000000   0.000000 )  
               a(3) = (   0.000000   0.000000   1.000000 )  

     reciprocal axes: (cart. coord. in units 2 pi/alat)
               b(1) = (  1.000000  0.000000  0.000000 )  
               b(2) = (  0.000000  1.000000  0.000000 )  
               b(3) = (  0.000000  0.000000  1.000000 )  


     PseudoPot. # 1 for O  read from file:
     /home/bond/Software/QE/qe-7.4.1/pseudo/O.pz-rrkjus.UPF
     MD5 check sum: 24fb942a68ef5d262e498166c462ef4a
     Pseudo is Ultrasoft, Zval =  6.0
     Generated by new atomic code, or converted to UPF format
     Using radial grid of 1269 points,  4 beta functions with: 
                l(1) =   0
                l(2) =   0
                l(3) =   1
                l(4) =   1
     Q(r) pseudized with 0 coefficients 


     PseudoPot. # 2 for Pb read from file:
     /home/bond/Software/QE/qe-7.4.1/pseudo/Pb.pz-d-van.UPF
     MD5 check sum: 4e1e5920686a026ae26139ac417581ff
     Pseudo is Ultrasoft, Zval = 14.0
     Generated by new atomic code, or converted to UPF format
     Using radial grid of  899 points,  6 beta functions with: 
                l(1) =   0
                l(2) =   0
                l(3) =   1
                l(4) =   1
                l(5) =   2
                l(6) =   2
     Q(r) pseudized with  8 coefficients,  rinner =    1.000   1.000   1.000
                                                       1.000   1.000

     PseudoPot. # 3 for Ti read from file:
     /home/bond/Software/QE/qe-7.4.1/pseudo/Ti.pz-sp-van_ak.UPF
     MD5 check sum: 545d0e6e05332b8871a8093f427cb0ca
     Pseudo is Ultrasoft, Zval = 12.0
     Generated by new atomic code, or converted to UPF format
     Using radial grid of  851 points,  6 beta functions with: 
                l(1) =   0
                l(2) =   0
                l(3) =   1
                l(4) =   1
                l(5) =   2
                l(6) =   2
     Q(r) pseudized with  8 coefficients,  rinner =    1.000   1.000   1.000
                                                       1.000   1.000

     atomic species   valence    mass     pseudopotential
     O                 6.00    15.99900     O ( 1.00)
     Pb               14.00   207.20000     Pb( 1.00)
     Ti               12.00    47.86700     Ti( 1.00)

     48 Sym. Ops., with inversion, found



   Cartesian axes

     site n.     atom                  positions (alat units)
         1        Pb     tau(   1) = (   0.0000000   0.0000000   0.0000000  )
         2        Ti     tau(   2) = (   0.4999991   0.4999991   0.4999991  )
         3        O      tau(   3) = (   0.0000000   0.4999991   0.4999991  )
         4        O      tau(   4) = (   0.4999991   0.0000000   0.4999991  )
         5        O      tau(   5) = (   0.4999991   0.4999991   0.0000000  )

     number of k points=     4
                       cart. coord. in units 2pi/alat
        k(    1) = (   0.1250000   0.1250000   0.1250000), wk =   0.2500000
        k(    2) = (   0.1250000   0.1250000   0.3750000), wk =   0.7500000
        k(    3) = (   0.1250000   0.3750000   0.3750000), wk =   0.7500000
        k(    4) = (   0.3750000   0.3750000   0.3750000), wk =   0.2500000

     Dense  grid:    24405 G-vectors     FFT dimensions: (  40,  40,  40)

     Smooth grid:     8709 G-vectors     FFT dimensions: (  25,  25,  25)

     Estimated max dynamical RAM per process >      50.52 MB

     Estimated total dynamical RAM >     101.04 MB

     Initial potential from superposition of free atoms

     starting charge      42.9982, renormalised to      44.0000
     Starting wfcs are   31 randomized atomic wfcs

     total cpu time spent up to now is        1.5 secs

     Self-consistent Calculation

     iteration #  1     ecut=    30.00 Ry     beta= 0.70
     Davidson diagonalization with overlap
     ethr =  1.00E-02,  avg # of iterations =  2.0

     total cpu time spent up to now is        1.8 secs

     total energy              =    -332.62065420 Ry
     estimated scf accuracy    <       1.09741075 Ry

     iteration #  2     ecut=    30.00 Ry     beta= 0.70
     Davidson diagonalization with overlap
     ethr =  2.49E-03,  avg # of iterations =  6.8

     total cpu time spent up to now is        2.3 secs

     total energy              =    -332.39089890 Ry
     estimated scf accuracy    <       4.09546693 Ry

     iteration #  3     ecut=    30.00 Ry     beta= 0.70
     Davidson diagonalization with overlap
     ethr =  2.49E-03,  avg # of iterations =  5.8

     total cpu time spent up to now is        2.6 secs

     total energy              =    -333.16037942 Ry
     estimated scf accuracy    <       0.21923428 Ry

     iteration #  4     ecut=    30.00 Ry     beta= 0.70
     Davidson diagonalization with overlap
     ethr =  4.98E-04,  avg # of iterations =  2.0

     total cpu time spent up to now is        2.9 secs

     total energy              =    -333.15528024 Ry
     estimated scf accuracy    <       0.06071256 Ry

     iteration #  5     ecut=    30.00 Ry     beta= 0.70
     Davidson diagonalization with overlap
     ethr =  1.38E-04,  avg # of iterations =  5.5

     total cpu time spent up to now is        3.3 secs

     total energy              =    -333.18274044 Ry
     estimated scf accuracy    <       0.02725403 Ry

     iteration #  6     ecut=    30.00 Ry     beta= 0.70
     Davidson diagonalization with overlap
     ethr =  6.19E-05,  avg # of iterations =  2.5

     total cpu time spent up to now is        3.6 secs

     total energy              =    -333.18159104 Ry
     estimated scf accuracy    <       0.00898235 Ry

     iteration #  7     ecut=    30.00 Ry     beta= 0.70
     Davidson diagonalization with overlap
     ethr =  2.04E-05,  avg # of iterations =  4.5

     total cpu time spent up to now is        3.9 secs

     total energy              =    -333.18441044 Ry
     estimated scf accuracy    <       0.00040256 Ry

     iteration #  8     ecut=    30.00 Ry     beta= 0.70
     Davidson diagonalization with overlap
     ethr =  9.15E-07,  avg # of iterations =  3.8

     total cpu time spent up to now is        4.2 secs

     total energy              =    -333.18433598 Ry
     estimated scf accuracy    <       0.00054707 Ry

     iteration #  9     ecut=    30.00 Ry     beta= 0.70
     Davidson diagonalization with overlap
     ethr =  9.15E-07,  avg # of iterations =  2.0

     total cpu time spent up to now is        4.4 secs

     total energy              =    -333.18429953 Ry
     estimated scf accuracy    <       0.00022365 Ry

     iteration # 10     ecut=    30.00 Ry     beta= 0.70
     Davidson diagonalization with overlap
     ethr =  5.08E-07,  avg # of iterations =  4.8

     total cpu time spent up to now is        4.8 secs

     total energy              =    -333.18435026 Ry
     estimated scf accuracy    <       0.00000412 Ry

     iteration # 11     ecut=    30.00 Ry     beta= 0.70
     Davidson diagonalization with overlap
     ethr =  9.36E-09,  avg # of iterations =  4.8

     total cpu time spent up to now is        5.1 secs

     total energy              =    -333.18435268 Ry
     estimated scf accuracy    <       0.00000514 Ry

     iteration # 12     ecut=    30.00 Ry     beta= 0.70
     Davidson diagonalization with overlap
     ethr =  9.36E-09,  avg # of iterations =  1.0

     total cpu time spent up to now is        5.4 secs

     total energy              =    -333.18435159 Ry
     estimated scf accuracy    <       0.00000437 Ry

     iteration # 13     ecut=    30.00 Ry     beta= 0.70
     Davidson diagonalization with overlap
     ethr =  9.36E-09,  avg # of iterations =  2.0

     total cpu time spent up to now is        5.6 secs

     total energy              =    -333.18435166 Ry
     estimated scf accuracy    <       0.00000125 Ry

     iteration # 14     ecut=    30.00 Ry     beta= 0.70
     Davidson diagonalization with overlap
     ethr =  2.84E-09,  avg # of iterations =  4.2

     total cpu time spent up to now is        5.9 secs

     End of self-consistent calculation

          k = 0.1250 0.1250 0.1250 (  1090 PWs)   bands (ev):

   -44.5275 -21.1422 -21.1405 -21.1405  -6.2529  -5.1642  -5.1642  -3.8319
    -3.8319  -3.8177  -3.6495  -3.6495   4.7751   7.3995   7.3995   8.2020
     9.2473   9.2473  10.0011  10.0816  10.0816  10.2218

          k = 0.1250 0.1250 0.3750 (  1079 PWs)   bands (ev):

   -44.5261 -21.2002 -21.1385 -21.1382  -5.8373  -5.0429  -4.9842  -3.8951
    -3.8270  -3.8148  -3.7492  -3.6165   4.0287   6.9325   7.4261   7.9525
     8.5602   8.8462   9.5032  10.0551  10.2252  11.0034

          k = 0.1250 0.3750 0.3750 (  1087 PWs)   bands (ev):

   -44.5249 -21.1975 -21.1966 -21.1366  -5.6182  -4.9049  -4.8338  -3.8678
    -3.8232  -3.7691  -3.6781  -3.5274   3.6475   6.9109   6.9250   7.2731
     7.5848   8.7893   9.5653   9.5875  10.1729  10.8441

          k = 0.3750 0.3750 0.3750 (  1070 PWs)   bands (ev):

   -44.5235 -21.1945 -21.1938 -21.1938  -5.2050  -5.0299  -5.0299  -3.7766
    -3.7766  -3.4850  -3.4173  -3.4173   4.2687   6.0221   6.0221   6.8193
     7.1195   7.1195   8.1032  10.7991  10.7991  10.8742

     highest occupied level (ev):    11.0034

!    total energy              =    -333.18435179 Ry
     estimated scf accuracy    <       0.00000008 Ry

     The total energy is the sum of the following terms:
     one-electron contribution =     -75.56455695 Ry
     hartree contribution      =      65.95877234 Ry
     xc contribution           =     -49.67215256 Ry
     ewald contribution        =    -273.90641462 Ry

     convergence has been achieved in  14 iterations

     Forces acting on atoms (cartesian axes, Ry/au):

     atom    1 type  2   force =     0.00000000    0.00000000    0.00000000
     atom    2 type  3   force =     0.00000000    0.00000000    0.00000000
     atom    3 type  1   force =     0.00000000    0.00000000    0.00000000
     atom    4 type  1   force =     0.00000000    0.00000000    0.00000000
     atom    5 type  1   force =     0.00000000    0.00000000    0.00000000

     Total force =     0.000000     Total SCF correction =     0.000000


     Computing stress (Cartesian axis) and pressure

          total   stress  (Ry/bohr**3)                   (kbar)     P=       -1.21
  -0.00000821   0.00000000   0.00000000           -1.21        0.00        0.00
   0.00000000  -0.00000821   0.00000000            0.00       -1.21        0.00
   0.00000000   0.00000000  -0.00000821            0.00        0.00       -1.21

     Message from routine punch:
     Nothing written, as per user request (disk_io='none')

     init_run     :      0.97s CPU      1.02s WALL (       1 calls)
     electrons    :      4.29s CPU      4.44s WALL (       1 calls)
     forces       :      0.13s CPU      0.13s WALL (       1 calls)
     stress       :      1.08s CPU      1.10s WALL (       1 calls)

     Called by init_run:
     wfcinit      :      0.05s CPU      0.06s WALL (       1 calls)
     potinit      :      0.08s CPU      0.09s WALL (       1 calls)
     hinit0       :      0.64s CPU      0.65s WALL (       1 calls)

     Called by electrons:
     c_bands      :      1.42s CPU      1.51s WALL (      14 calls)
     sum_band     :      1.61s CPU      1.64s WALL (      14 calls)
     v_of_rho     :      0.05s CPU      0.05s WALL (      15 calls)
     newd         :      1.28s CPU      1.33s WALL (      15 calls)
     mix_rho      :      0.03s CPU      0.03s WALL (      14 calls)

     Called by c_bands:
     init_us_2    :      0.05s CPU      0.05s WALL (     124 calls)
     cegterg      :      1.32s CPU      1.41s WALL (      56 calls)

     Called by *egterg:
     cdiaghg      :      0.17s CPU      0.18s WALL (     262 calls)
     h_psi        :      0.94s CPU      1.02s WALL (     266 calls)
     s_psi        :      0.04s CPU      0.05s WALL (     266 calls)
     g_psi        :      0.01s CPU      0.01s WALL (     206 calls)

     Called by h_psi:
     h_psi:calbec :      0.07s CPU      0.08s WALL (     266 calls)
     vloc_psi     :      0.82s CPU      0.88s WALL (     266 calls)
     add_vuspsi   :      0.04s CPU      0.05s WALL (     266 calls)

     General routines
     calbec       :      0.11s CPU      0.12s WALL (     390 calls)
     fft          :      0.28s CPU      0.28s WALL (      93 calls)
     ffts         :      0.04s CPU      0.04s WALL (      29 calls)
     fftw         :      0.76s CPU      0.82s WALL (    8066 calls)
     interpolate  :      0.05s CPU      0.05s WALL (      15 calls)

     Parallel routines

     PWSCF        :      6.94s CPU      7.17s WALL


   This run was terminated on:   1:39:26  21Oct2025            

=------------------------------------------------------------------------------=
   JOB DONE.
=------------------------------------------------------------------------------=
