
     Program PWSCF v.7.4.1 starts on  7Oct2025 at 23:55:45 

     This program is part of the open-source Quantum ESPRESSO suite
     for quantum simulation of materials; please cite
         "P. Giannozzi et al., J. Phys.:Condens. Matter 21 395502 (2009);
         "P. Giannozzi et al., J. Phys.:Condens. Matter 29 465901 (2017);
         "P. Giannozzi et al., J. Chem. Phys. 152 154105 (2020);
          URL http://www.quantum-espresso.org", 
     in publications or presentations arising from this work. More details at
     http://www.quantum-espresso.org/quote

     Parallel version (MPI), running on     1 processors

     MPI processes distributed on     1 nodes
     252 MiB available memory on the printing compute node when the environment starts

     Waiting for input...
     Reading input from standard input
Warning: card &CELL ignored
Warning: card / ignored

     Current dimensions of program PWSCF are:
     Max number of different atomic species (ntypx) = 10
     Max number of k-points (npk) =  40000
     Max angular momentum in pseudopotentials (lmaxx) =  4
     Message from routine setup:
     using ibrav=0 with symmetry is DISCOURAGED, use correct ibrav instead

     Subspace diagonalization in iterative solution of the eigenvalue problem:
     a serial algorithm will be used


     G-vector sticks info
     --------------------
     sticks:   dense  smooth     PW     G-vecs:    dense   smooth      PW
     Sum         475     475    151                 6855     6855    1243

     Using Slab Decomposition



     bravais-lattice index     =            0
     lattice parameter (alat)  =       7.5604  a.u.
     unit-cell volume          =     305.5804 (a.u.)^3
     number of atoms/cell      =            2
     number of atomic types    =            1
     number of electrons       =        28.00
     number of Kohn-Sham states=           14
     kinetic-energy cutoff     =      30.0000  Ry
     charge density cutoff     =     120.0000  Ry
     scf convergence threshold =      1.0E-07
     mixing beta               =       0.5000
     number of iterations used =            8  plain     mixing
     Exchange-correlation=  SLA  PZ   NOGX NOGC
                           (   1   1   0   0   0   0   0)

     celldm(1)=   7.560435  celldm(2)=   0.000000  celldm(3)=   0.000000
     celldm(4)=   0.000000  celldm(5)=   0.000000  celldm(6)=   0.000000

     crystal axes: (cart. coord. in units of alat)
               a(1) = (   0.000000   0.707107   0.707107 )  
               a(2) = (   0.707107   0.000000   0.707107 )  
               a(3) = (   0.707107   0.707107   0.000000 )  

     reciprocal axes: (cart. coord. in units 2 pi/alat)
               b(1) = ( -0.707107  0.707107  0.707107 )  
               b(2) = (  0.707107 -0.707107  0.707107 )  
               b(3) = (  0.707107  0.707107 -0.707107 )  


     PseudoPot. # 1 for Ge read from file:
     /home/bond/Software/QE/qe-7.4.1/pseudo/ge_lda_v1.4.uspp.F.UPF
     MD5 check sum: bf9d52b59cc8a669818bb2b52e0c2ba0
     Pseudo is Ultrasoft + core correction, Zval = 14.0
     Generated by new atomic code, or converted to UPF format
     Using radial grid of  873 points,  6 beta functions with: 
                l(1) =   0
                l(2) =   0
                l(3) =   1
                l(4) =   1
                l(5) =   2
                l(6) =   2
     Q(r) pseudized with  8 coefficients,  rinner =    1.400   1.400   1.400
                                                       1.400   1.400

     atomic species   valence    mass     pseudopotential
     Ge               14.00    72.63000     Ge( 1.00)

     48 Sym. Ops., with inversion, found (24 have fractional translation)



   Cartesian axes

     site n.     atom                  positions (alat units)
         1        Ge     tau(   1) = (   0.0000000   0.0000000   0.0000000  )
         2        Ge     tau(   2) = (   0.3535534   0.3535534   0.3535534  )

     number of k points=    29
                       cart. coord. in units 2pi/alat
        k(    1) = (   0.0000000   0.0000000   0.0000000), wk =   0.0039062
        k(    2) = (   0.0883883   0.0883883  -0.0883883), wk =   0.0312500
        k(    3) = (   0.1767767   0.1767767  -0.1767767), wk =   0.0312500
        k(    4) = (   0.2651650   0.2651650  -0.2651650), wk =   0.0312500
        k(    5) = (  -0.3535534  -0.3535534   0.3535534), wk =   0.0156250
        k(    6) = (   0.1767767   0.0000000   0.0000000), wk =   0.0234375
        k(    7) = (   0.2651650   0.0883883  -0.0883883), wk =   0.0937500
        k(    8) = (   0.3535534   0.1767767  -0.1767767), wk =   0.0937500
        k(    9) = (  -0.2651650  -0.4419417   0.4419417), wk =   0.0937500
        k(   10) = (  -0.1767767  -0.3535534   0.3535534), wk =   0.0937500
        k(   11) = (  -0.0883883  -0.2651650   0.2651650), wk =   0.0937500
        k(   12) = (   0.0000000  -0.1767767   0.1767767), wk =   0.0468750
        k(   13) = (   0.3535534   0.0000000   0.0000000), wk =   0.0234375
        k(   14) = (   0.4419417   0.0883883  -0.0883883), wk =   0.0937500
        k(   15) = (  -0.1767767  -0.5303301   0.5303301), wk =   0.0937500
        k(   16) = (  -0.0883883  -0.4419417   0.4419417), wk =   0.0937500
        k(   17) = (   0.0000000  -0.3535534   0.3535534), wk =   0.0468750
        k(   18) = (   0.5303301   0.0000000   0.0000000), wk =   0.0234375
        k(   19) = (  -0.0883883  -0.6187184   0.6187184), wk =   0.0937500
        k(   20) = (   0.0000000  -0.5303301   0.5303301), wk =   0.0468750
        k(   21) = (  -0.7071068   0.0000000   0.0000000), wk =   0.0117188
        k(   22) = (   0.3535534   0.1767767   0.0000000), wk =   0.0937500
        k(   23) = (  -0.2651650  -0.4419417   0.6187184), wk =   0.1875000
        k(   24) = (  -0.1767767  -0.3535534   0.5303301), wk =   0.0937500
        k(   25) = (  -0.1767767  -0.5303301   0.7071068), wk =   0.0937500
        k(   26) = (  -0.0883883  -0.4419417   0.6187184), wk =   0.1875000
        k(   27) = (   0.0000000  -0.3535534   0.5303301), wk =   0.0937500
        k(   28) = (  -0.7071068   0.1767767   0.0000000), wk =   0.0468750
        k(   29) = (  -0.7071068   0.3535534   0.0000000), wk =   0.0234375

     Dense  grid:     6855 G-vectors     FFT dimensions: (  32,  32,  32)

     Estimated max dynamical RAM per process >      32.91 MB

     Check: negative core charge=   -0.000126

     Initial potential from superposition of free atoms

     starting charge      27.9986, renormalised to      28.0000
     Starting wfcs are   18 randomized atomic wfcs

     total cpu time spent up to now is        1.1 secs

     Self-consistent Calculation

     iteration #  1     ecut=    30.00 Ry     beta= 0.50
     Davidson diagonalization with overlap
     ethr =  1.00E-02,  avg # of iterations =  1.7

     Threshold (ethr) on eigenvalues was too large:
     Diagonalizing with lowered threshold

     Davidson diagonalization with overlap
     ethr =  1.21E-04,  avg # of iterations =  2.0

     total cpu time spent up to now is        2.3 secs

     total energy              =    -426.13910259 Ry
     estimated scf accuracy    <       0.03591102 Ry

     iteration #  2     ecut=    30.00 Ry     beta= 0.50
     Davidson diagonalization with overlap
     ethr =  1.28E-04,  avg # of iterations =  1.0

     total cpu time spent up to now is        2.9 secs

     total energy              =    -426.13793704 Ry
     estimated scf accuracy    <       0.00612430 Ry

     iteration #  3     ecut=    30.00 Ry     beta= 0.50
     Davidson diagonalization with overlap
     ethr =  2.19E-05,  avg # of iterations =  2.0

     total cpu time spent up to now is        3.5 secs

     total energy              =    -426.13842109 Ry
     estimated scf accuracy    <       0.00006774 Ry

     iteration #  4     ecut=    30.00 Ry     beta= 0.50
     Davidson diagonalization with overlap
     ethr =  2.42E-07,  avg # of iterations =  3.8

     total cpu time spent up to now is        4.3 secs

     total energy              =    -426.13844144 Ry
     estimated scf accuracy    <       0.00000645 Ry

     iteration #  5     ecut=    30.00 Ry     beta= 0.50
     Davidson diagonalization with overlap
     ethr =  2.30E-08,  avg # of iterations =  2.3

     total cpu time spent up to now is        5.1 secs

     End of self-consistent calculation

          k = 0.0000 0.0000 0.0000 (   869 PWs)   bands (ev):

   -16.8292 -16.8292 -16.8292 -16.8037 -16.8037 -16.6025 -16.6025 -16.6025
   -16.5794 -16.5794  -4.6668   7.9549   8.1494   8.1494

          k = 0.0884 0.0884-0.0884 (   869 PWs)   bands (ev):

   -16.8407 -16.8407 -16.8334 -16.7886 -16.7886 -16.6089 -16.6089 -16.5986
   -16.5722 -16.5722  -4.4768   5.7162   7.8144   7.8144

          k = 0.1768 0.1768-0.1768 (   854 PWs)   bands (ev):

   -16.8508 -16.8508 -16.8232 -16.7680 -16.7680 -16.6154 -16.6154 -16.6052
   -16.5593 -16.5593  -3.9258   3.3725   7.2680   7.2680

          k = 0.2652 0.2652-0.2652 (   848 PWs)   bands (ev):

   -16.8512 -16.8512 -16.8209 -16.7587 -16.7587 -16.6220 -16.6220 -16.6092
   -16.5525 -16.5525  -3.1191   1.4285   6.8815   6.8815

          k =-0.3536-0.3536 0.3536 (   862 PWs)   bands (ev):

   -16.8536 -16.8536 -16.8210 -16.7615 -16.7615 -16.6265 -16.6265 -16.6116
   -16.5563 -16.5563  -2.5828   0.5051   6.7470   6.7470

          k = 0.1768 0.0000 0.0000 (   877 PWs)   bands (ev):

   -16.8456 -16.8451 -16.8451 -16.7942 -16.7748 -16.6335 -16.5896 -16.5896
   -16.5878 -16.5682  -4.4126   5.6668   7.2749   7.2749

          k = 0.2652 0.0884-0.0884 (   858 PWs)   bands (ev):

   -16.8547 -16.8448 -16.8293 -16.7772 -16.7543 -16.6496 -16.6034 -16.5872
   -16.5708 -16.5575  -3.9772   3.9013   6.6166   6.7133

          k = 0.3536 0.1768-0.1768 (   852 PWs)   bands (ev):

   -16.8626 -16.8500 -16.8166 -16.7610 -16.7422 -16.6556 -16.6158 -16.6016
   -16.5570 -16.5464  -3.2316   1.9626   5.9292   6.3982

          k =-0.2652-0.4419 0.4419 (   842 PWs)   bands (ev):

   -16.8643 -16.8531 -16.8036 -16.7466 -16.7446 -16.6414 -16.6273 -16.6151
   -16.5466 -16.5378  -2.4862   0.6326   5.4711   6.3958

          k =-0.1768-0.3536 0.3536 (   849 PWs)   bands (ev):

   -16.8618 -16.8575 -16.8019 -16.7572 -16.7427 -16.6407 -16.6243 -16.6228
   -16.5464 -16.5430  -2.6909   0.9605   5.3312   6.6955

          k =-0.0884-0.2652 0.2652 (   850 PWs)   bands (ev):

   -16.8570 -16.8523 -16.8111 -16.7672 -16.7479 -16.6375 -16.6249 -16.6008
   -16.5573 -16.5488  -3.5107   2.5797   5.5793   7.2243

          k = 0.0000-0.1768 0.1768 (   847 PWs)   bands (ev):

   -16.8465 -16.8393 -16.8248 -16.7762 -16.7623 -16.6230 -16.6133 -16.5790
   -16.5777 -16.5573  -4.1645   4.4452   6.3991   7.7680

          k = 0.3536 0.0000 0.0000 (   849 PWs)   bands (ev):

   -16.8464 -16.8464 -16.8430 -16.7609 -16.7311 -16.6805 -16.6078 -16.5659
   -16.5633 -16.5633  -3.6582   3.3581   6.1139   6.1139

          k = 0.4419 0.0884-0.0884 (   845 PWs)   bands (ev):

   -16.8618 -16.8529 -16.8211 -16.7428 -16.7087 -16.6983 -16.6237 -16.5882
   -16.5509 -16.5426  -3.0007   2.0106   5.2850   5.7641

          k =-0.1768-0.5303 0.5303 (   845 PWs)   bands (ev):

   -16.8752 -16.8555 -16.7984 -16.7272 -16.7124 -16.6915 -16.6408 -16.6102
   -16.5429 -16.5294  -2.1727   0.7096   4.4075   5.7498

          k =-0.0884-0.4419 0.4419 (   843 PWs)   bands (ev):

   -16.8757 -16.8579 -16.7837 -16.7275 -16.7180 -16.6682 -16.6572 -16.6260
   -16.5390 -16.5271  -2.0112   0.4996   3.9834   6.0705

          k = 0.0000-0.3536 0.3536 (   847 PWs)   bands (ev):

   -16.8682 -16.8640 -16.7868 -16.7541 -16.7256 -16.6549 -16.6371 -16.6232
   -16.5431 -16.5357  -2.7856   1.5627   4.2691   6.6465

          k = 0.5303 0.0000 0.0000 (   842 PWs)   bands (ev):

   -16.8557 -16.8557 -16.8231 -16.7328 -16.7192 -16.6769 -16.6400 -16.5845
   -16.5445 -16.5445  -2.4322   1.1764   5.3433   5.3433

          k =-0.0884-0.6187 0.6187 (   843 PWs)   bands (ev):

   -16.8678 -16.8576 -16.7957 -16.7500 -16.7011 -16.6605 -16.6605 -16.6118
   -16.5355 -16.5321  -1.6050   0.1345   4.5798   5.2556

          k = 0.0000-0.5303 0.5303 (   834 PWs)   bands (ev):

   -16.8765 -16.8583 -16.7809 -16.7179 -16.6951 -16.6796 -16.6664 -16.6246
   -16.5315 -16.5203  -1.2606  -0.2008   3.8020   5.5184

          k =-0.7071 0.0000 0.0000 (   846 PWs)   bands (ev):

   -16.8603 -16.8603 -16.7847 -16.7847 -16.6844 -16.6844 -16.6258 -16.6258
   -16.5341 -16.5341  -0.7906  -0.7906   5.0781   5.0781

          k = 0.3536 0.1768 0.0000 (   849 PWs)   bands (ev):

   -16.8595 -16.8541 -16.8156 -16.7608 -16.7333 -16.6683 -16.6155 -16.5936
   -16.5560 -16.5488  -3.4330   2.7152   5.2832   6.5298

          k =-0.2652-0.4419 0.6187 (   850 PWs)   bands (ev):

   -16.8704 -16.8618 -16.7964 -16.7471 -16.7208 -16.6737 -16.6297 -16.6197
   -16.5433 -16.5357  -2.6273   1.2708   4.5887   6.0507

          k =-0.1768-0.3536 0.5303 (   838 PWs)   bands (ev):

   -16.8695 -16.8608 -16.7851 -16.7353 -16.7219 -16.6636 -16.6420 -16.6245
   -16.5357 -16.5297  -2.0711   0.4508   4.4036   5.8364

          k =-0.1768-0.5303 0.7071 (   856 PWs)   bands (ev):

   -16.8697 -16.8674 -16.8010 -16.7279 -16.7201 -16.6910 -16.6452 -16.6115
   -16.5376 -16.5374  -2.2619   0.9677   4.6364   5.2538

          k =-0.0884-0.4419 0.6187 (   844 PWs)   bands (ev):

   -16.8775 -16.8655 -16.7735 -16.7170 -16.7087 -16.6841 -16.6624 -16.6329
   -16.5307 -16.5238  -1.4881   0.0632   3.9979   5.0597

          k = 0.0000-0.3536 0.5303 (   850 PWs)   bands (ev):

   -16.8768 -16.8686 -16.7743 -16.7253 -16.6985 -16.6943 -16.6593 -16.6359
   -16.5332 -16.5265  -1.8132   0.4232   3.8460   5.4206

          k =-0.7071 0.1768 0.0000 (   848 PWs)   bands (ev):

   -16.8690 -16.8690 -16.7642 -16.7642 -16.6852 -16.6852 -16.6447 -16.6447
   -16.5279 -16.5279  -0.7435  -0.7435   4.6029   4.6029

          k =-0.7071 0.3536 0.0000 (   848 PWs)   bands (ev):

   -16.8761 -16.8761 -16.7411 -16.7411 -16.6898 -16.6898 -16.6596 -16.6596
   -16.5244 -16.5244  -0.6938  -0.6938   4.2346   4.2346

     highest occupied level (ev):     8.1494

!    total energy              =    -426.13844249 Ry
     estimated scf accuracy    <       0.00000009 Ry

     The total energy is the sum of the following terms:
     one-electron contribution =    -278.98870679 Ry
     hartree contribution      =     164.84414825 Ry
     xc contribution           =    -114.49940888 Ry
     ewald contribution        =    -197.49447506 Ry

     convergence has been achieved in   5 iterations

     Forces acting on atoms (cartesian axes, Ry/au):

     atom    1 type  1   force =    -0.00000000   -0.00000000   -0.00000000
     atom    2 type  1   force =     0.00000000    0.00000000    0.00000000

     Total force =     0.000000     Total SCF correction =     0.000000


     Computing stress (Cartesian axis) and pressure

          total   stress  (Ry/bohr**3)                   (kbar)     P=     -153.18
  -0.00104132   0.00000000   0.00000000         -153.18        0.00        0.00
   0.00000000  -0.00104132   0.00000000            0.00     -153.18        0.00
   0.00000000  -0.00000000  -0.00104132            0.00       -0.00     -153.18

     Message from routine punch:
     Nothing written, as per user request (disk_io='none')

     init_run     :      0.84s CPU      0.89s WALL (       1 calls)
     electrons    :      3.88s CPU      3.99s WALL (       1 calls)
     forces       :      0.08s CPU      0.08s WALL (       1 calls)
     stress       :      0.50s CPU      0.50s WALL (       1 calls)

     Called by init_run:
     wfcinit      :      0.44s CPU      0.47s WALL (       1 calls)
     potinit      :      0.02s CPU      0.02s WALL (       1 calls)
     hinit0       :      0.35s CPU      0.35s WALL (       1 calls)

     Called by electrons:
     c_bands      :      3.07s CPU      3.15s WALL (       6 calls)
     sum_band     :      0.67s CPU      0.70s WALL (       6 calls)
     v_of_rho     :      0.01s CPU      0.01s WALL (       6 calls)
     newd         :      0.14s CPU      0.16s WALL (       6 calls)
     mix_rho      :      0.00s CPU      0.00s WALL (       6 calls)

     Called by c_bands:
     init_us_2    :      0.14s CPU      0.15s WALL (     435 calls)
     cegterg      :      2.75s CPU      2.82s WALL (     174 calls)

     Called by *egterg:
     cdiaghg      :      0.14s CPU      0.14s WALL (     514 calls)
     h_psi        :      2.62s CPU      2.71s WALL (     572 calls)
     s_psi        :      0.07s CPU      0.08s WALL (     572 calls)
     g_psi        :      0.02s CPU      0.02s WALL (     369 calls)

     Called by h_psi:
     h_psi:calbec :      0.10s CPU      0.10s WALL (     572 calls)
     vloc_psi     :      2.42s CPU      2.50s WALL (     572 calls)
     add_vuspsi   :      0.08s CPU      0.08s WALL (     572 calls)

     General routines
     calbec       :      0.20s CPU      0.20s WALL (    1239 calls)
     fft          :      0.17s CPU      0.17s WALL (      33 calls)
     ffts         :      0.00s CPU      0.00s WALL (       6 calls)
     fftw         :      2.26s CPU      2.33s WALL (   15020 calls)

     Parallel routines

     PWSCF        :      5.45s CPU      5.64s WALL


   This run was terminated on:  23:55:51   7Oct2025            

=------------------------------------------------------------------------------=
   JOB DONE.
=------------------------------------------------------------------------------=
