
     Program PWSCF v.7.4.1 starts on  7Oct2025 at 23:56: 9 

     This program is part of the open-source Quantum ESPRESSO suite
     for quantum simulation of materials; please cite
         "P. Giannozzi et al., J. Phys.:Condens. Matter 21 395502 (2009);
         "P. Giannozzi et al., J. Phys.:Condens. Matter 29 465901 (2017);
         "P. Giannozzi et al., J. Chem. Phys. 152 154105 (2020);
          URL http://www.quantum-espresso.org", 
     in publications or presentations arising from this work. More details at
     http://www.quantum-espresso.org/quote

     Parallel version (MPI), running on     1 processors

     MPI processes distributed on     1 nodes
     226 MiB available memory on the printing compute node when the environment starts

     Waiting for input...
     Reading input from standard input
Warning: card &CELL ignored
Warning: card / ignored

     Current dimensions of program PWSCF are:
     Max number of different atomic species (ntypx) = 10
     Max number of k-points (npk) =  40000
     Max angular momentum in pseudopotentials (lmaxx) =  4
     Message from routine setup:
     using ibrav=0 with symmetry is DISCOURAGED, use correct ibrav instead

     Subspace diagonalization in iterative solution of the eigenvalue problem:
     a serial algorithm will be used


     G-vector sticks info
     --------------------
     sticks:   dense  smooth     PW     G-vecs:    dense   smooth      PW
     Sum         475     475    151                 6855     6855    1243

     Using Slab Decomposition



     bravais-lattice index     =            0
     lattice parameter (alat)  =       7.5604  a.u.
     unit-cell volume          =     305.5804 (a.u.)^3
     number of atoms/cell      =            2
     number of atomic types    =            1
     number of electrons       =        28.00
     number of Kohn-Sham states=           14
     kinetic-energy cutoff     =      30.0000  Ry
     charge density cutoff     =     120.0000  Ry
     scf convergence threshold =      1.0E-07
     mixing beta               =       0.5000
     number of iterations used =            8  plain     mixing
     Exchange-correlation=  SLA  PZ   NOGX NOGC
                           (   1   1   0   0   0   0   0)

     celldm(1)=   7.560435  celldm(2)=   0.000000  celldm(3)=   0.000000
     celldm(4)=   0.000000  celldm(5)=   0.000000  celldm(6)=   0.000000

     crystal axes: (cart. coord. in units of alat)
               a(1) = (   0.000000   0.707107   0.707107 )  
               a(2) = (   0.707107   0.000000   0.707107 )  
               a(3) = (   0.707107   0.707107   0.000000 )  

     reciprocal axes: (cart. coord. in units 2 pi/alat)
               b(1) = ( -0.707107  0.707107  0.707107 )  
               b(2) = (  0.707107 -0.707107  0.707107 )  
               b(3) = (  0.707107  0.707107 -0.707107 )  


     PseudoPot. # 1 for Ge read from file:
     /home/bond/Software/QE/qe-7.4.1/pseudo/ge_lda_v1.4.uspp.F.UPF
     MD5 check sum: bf9d52b59cc8a669818bb2b52e0c2ba0
     Pseudo is Ultrasoft + core correction, Zval = 14.0
     Generated by new atomic code, or converted to UPF format
     Using radial grid of  873 points,  6 beta functions with: 
                l(1) =   0
                l(2) =   0
                l(3) =   1
                l(4) =   1
                l(5) =   2
                l(6) =   2
     Q(r) pseudized with  8 coefficients,  rinner =    1.400   1.400   1.400
                                                       1.400   1.400

     atomic species   valence    mass     pseudopotential
     Ge               14.00    72.63000     Ge( 1.00)

     48 Sym. Ops., with inversion, found (24 have fractional translation)



   Cartesian axes

     site n.     atom                  positions (alat units)
         1        Ge     tau(   1) = (   0.0000000   0.0000000   0.0000000  )
         2        Ge     tau(   2) = (   0.3535534   0.3535534   0.3535534  )

     number of k points=    56
                       cart. coord. in units 2pi/alat
        k(    1) = (   0.0000000   0.0000000   0.0000000), wk =   0.0015026
        k(    2) = (   0.0642824   0.0642824  -0.0642824), wk =   0.0120210
        k(    3) = (   0.1285649   0.1285649  -0.1285649), wk =   0.0120210
        k(    4) = (   0.1928473   0.1928473  -0.1928473), wk =   0.0120210
        k(    5) = (   0.2571297   0.2571297  -0.2571297), wk =   0.0120210
        k(    6) = (   0.3214122   0.3214122  -0.3214122), wk =   0.0120210
        k(    7) = (   0.1285649   0.0000000   0.0000000), wk =   0.0090158
        k(    8) = (   0.1928473   0.0642824  -0.0642824), wk =   0.0360631
        k(    9) = (   0.2571297   0.1285649  -0.1285649), wk =   0.0360631
        k(   10) = (   0.3214122   0.1928473  -0.1928473), wk =   0.0360631
        k(   11) = (   0.3856946   0.2571297  -0.2571297), wk =   0.0360631
        k(   12) = (  -0.2571297  -0.3856946   0.3856946), wk =   0.0360631
        k(   13) = (  -0.1928473  -0.3214122   0.3214122), wk =   0.0360631
        k(   14) = (  -0.1285649  -0.2571297   0.2571297), wk =   0.0360631
        k(   15) = (  -0.0642824  -0.1928473   0.1928473), wk =   0.0360631
        k(   16) = (  -0.0000000  -0.1285649   0.1285649), wk =   0.0180316
        k(   17) = (   0.2571297   0.0000000   0.0000000), wk =   0.0090158
        k(   18) = (   0.3214122   0.0642824  -0.0642824), wk =   0.0360631
        k(   19) = (   0.3856946   0.1285649  -0.1285649), wk =   0.0360631
        k(   20) = (   0.4499770   0.1928473  -0.1928473), wk =   0.0360631
        k(   21) = (  -0.1928473  -0.4499770   0.4499770), wk =   0.0360631
        k(   22) = (  -0.1285649  -0.3856946   0.3856946), wk =   0.0360631
        k(   23) = (  -0.0642824  -0.3214122   0.3214122), wk =   0.0360631
        k(   24) = (   0.0000000  -0.2571297   0.2571297), wk =   0.0180316
        k(   25) = (   0.3856946   0.0000000   0.0000000), wk =   0.0090158
        k(   26) = (   0.4499770   0.0642824  -0.0642824), wk =   0.0360631
        k(   27) = (   0.5142595   0.1285649  -0.1285649), wk =   0.0360631
        k(   28) = (  -0.1285649  -0.5142595   0.5142595), wk =   0.0360631
        k(   29) = (  -0.0642824  -0.4499770   0.4499770), wk =   0.0360631
        k(   30) = (   0.0000000  -0.3856946   0.3856946), wk =   0.0180316
        k(   31) = (   0.5142595   0.0000000   0.0000000), wk =   0.0090158
        k(   32) = (   0.5785419   0.0642824  -0.0642824), wk =   0.0360631
        k(   33) = (  -0.0642824  -0.5785419   0.5785419), wk =   0.0360631
        k(   34) = (   0.0000000  -0.5142595   0.5142595), wk =   0.0180316
        k(   35) = (   0.6428243   0.0000000   0.0000000), wk =   0.0090158
        k(   36) = (  -0.0000000  -0.6428243   0.6428243), wk =   0.0180316
        k(   37) = (   0.2571297   0.1285649   0.0000000), wk =   0.0360631
        k(   38) = (   0.3214122   0.1928473  -0.0642824), wk =   0.0721262
        k(   39) = (   0.3856946   0.2571297  -0.1285649), wk =   0.0721262
        k(   40) = (  -0.2571297  -0.3856946   0.5142595), wk =   0.0721262
        k(   41) = (   0.3856946   0.1285649   0.0000000), wk =   0.0360631
        k(   42) = (   0.4499770   0.1928473  -0.0642824), wk =   0.0721262
        k(   43) = (  -0.1928473  -0.4499770   0.5785419), wk =   0.0721262
        k(   44) = (  -0.1285649  -0.3856946   0.5142595), wk =   0.0721262
        k(   45) = (  -0.0642824  -0.3214122   0.4499770), wk =   0.0721262
        k(   46) = (   0.0000000  -0.2571297   0.3856946), wk =   0.0360631
        k(   47) = (   0.5142595   0.1285649   0.0000000), wk =   0.0360631
        k(   48) = (  -0.1285649  -0.5142595   0.6428243), wk =   0.0721262
        k(   49) = (  -0.0642824  -0.4499770   0.5785419), wk =   0.0721262
        k(   50) = (   0.0000000  -0.3856946   0.5142595), wk =   0.0360631
        k(   51) = (  -0.0642824  -0.5785419   0.7071068), wk =   0.0360631
        k(   52) = (   0.0000000  -0.5142595   0.6428243), wk =   0.0360631
        k(   53) = (  -0.1928473  -0.4499770   0.7071068), wk =   0.0360631
        k(   54) = (  -0.1285649  -0.3856946   0.6428243), wk =   0.0721262
        k(   55) = (  -0.0642824  -0.4499770   0.7071068), wk =   0.0360631
        k(   56) = (   0.0000000  -0.3856946   0.6428243), wk =   0.0360631

     Dense  grid:     6855 G-vectors     FFT dimensions: (  32,  32,  32)

     Estimated max dynamical RAM per process >      37.80 MB

     Check: negative core charge=   -0.000126

     Initial potential from superposition of free atoms

     starting charge      27.9986, renormalised to      28.0000
     Starting wfcs are   18 randomized atomic wfcs

     total cpu time spent up to now is        1.4 secs

     Self-consistent Calculation

     iteration #  1     ecut=    30.00 Ry     beta= 0.50
     Davidson diagonalization with overlap
     ethr =  1.00E-02,  avg # of iterations =  1.7

     Threshold (ethr) on eigenvalues was too large:
     Diagonalizing with lowered threshold

     Davidson diagonalization with overlap
     ethr =  1.20E-04,  avg # of iterations =  1.9

     total cpu time spent up to now is        3.9 secs

     total energy              =    -426.13982654 Ry
     estimated scf accuracy    <       0.03564260 Ry

     iteration #  2     ecut=    30.00 Ry     beta= 0.50
     Davidson diagonalization with overlap
     ethr =  1.27E-04,  avg # of iterations =  1.0

     total cpu time spent up to now is        5.6 secs

     total energy              =    -426.13868247 Ry
     estimated scf accuracy    <       0.00606776 Ry

     iteration #  3     ecut=    30.00 Ry     beta= 0.50
     Davidson diagonalization with overlap
     ethr =  2.17E-05,  avg # of iterations =  2.0

     total cpu time spent up to now is        6.8 secs

     total energy              =    -426.13916778 Ry
     estimated scf accuracy    <       0.00006720 Ry

     iteration #  4     ecut=    30.00 Ry     beta= 0.50
     Davidson diagonalization with overlap
     ethr =  2.40E-07,  avg # of iterations =  3.9

     total cpu time spent up to now is        8.4 secs

     total energy              =    -426.13919050 Ry
     estimated scf accuracy    <       0.00000644 Ry

     iteration #  5     ecut=    30.00 Ry     beta= 0.50
     Davidson diagonalization with overlap
     ethr =  2.30E-08,  avg # of iterations =  2.3

     total cpu time spent up to now is        9.6 secs

     total energy              =    -426.13919160 Ry
     estimated scf accuracy    <       0.00000011 Ry

     iteration #  6     ecut=    30.00 Ry     beta= 0.50
     Davidson diagonalization with overlap
     ethr =  4.10E-10,  avg # of iterations =  4.7

     total cpu time spent up to now is       11.7 secs

     End of self-consistent calculation

          k = 0.0000 0.0000 0.0000 (   869 PWs)   bands (ev):

   -16.8295 -16.8295 -16.8295 -16.8040 -16.8040 -16.6028 -16.6028 -16.6028
   -16.5796 -16.5796  -4.6685   7.9530   8.1473   8.1473

          k = 0.0643 0.0643-0.0643 (   875 PWs)   bands (ev):

   -16.8383 -16.8383 -16.8353 -16.7962 -16.7962 -16.6071 -16.6071 -16.6037
   -16.5756 -16.5756  -4.5678   6.3770   7.9523   7.9523

          k = 0.1286 0.1286-0.1286 (   866 PWs)   bands (ev):

   -16.8500 -16.8500 -16.8273 -16.7797 -16.7797 -16.6127 -16.6127 -16.6013
   -16.5666 -16.5666  -4.2700   4.6207   7.5573   7.5573

          k = 0.1928 0.1928-0.1928 (   851 PWs)   bands (ev):

   -16.8523 -16.8523 -16.8219 -16.7644 -16.7644 -16.6164 -16.6164 -16.6067
   -16.5580 -16.5580  -3.7939   2.9773   7.1794   7.1794

          k = 0.2571 0.2571-0.2571 (   848 PWs)   bands (ev):

   -16.8514 -16.8514 -16.8179 -16.7596 -16.7596 -16.6220 -16.6220 -16.6113
   -16.5536 -16.5536  -3.1972   1.5762   6.9049   6.9049

          k = 0.3214 0.3214-0.3214 (   847 PWs)   bands (ev):

   -16.8525 -16.8525 -16.8172 -16.7569 -16.7569 -16.6251 -16.6251 -16.6104
   -16.5504 -16.5504  -2.6746   0.6448   6.7631   6.7631

          k = 0.1286 0.0000 0.0000 (   873 PWs)   bands (ev):

   -16.8430 -16.8414 -16.8414 -16.7987 -16.7822 -16.6210 -16.5925 -16.5925
   -16.5844 -16.5705  -4.5339   6.3097   7.6077   7.6077

          k = 0.1928 0.0643-0.0643 (   860 PWs)   bands (ev):

   -16.8481 -16.8454 -16.8318 -16.7851 -16.7676 -16.6320 -16.5982 -16.5880
   -16.5754 -16.5633  -4.3008   4.9957   7.1714   7.2161

          k = 0.2571 0.1286-0.1286 (   855 PWs)   bands (ev):

   -16.8545 -16.8473 -16.8245 -16.7740 -16.7569 -16.6402 -16.6094 -16.5951
   -16.5659 -16.5549  -3.8809   3.4325   6.7429   6.8091

          k = 0.3214 0.1928-0.1928 (   848 PWs)   bands (ev):

   -16.8569 -16.8494 -16.8168 -16.7641 -16.7489 -16.6429 -16.6139 -16.6042
   -16.5579 -16.5482  -3.3131   1.9893   6.3102   6.5846

          k = 0.3857 0.2571-0.2571 (   846 PWs)   bands (ev):

   -16.8601 -16.8532 -16.8104 -16.7539 -16.7495 -16.6381 -16.6227 -16.6129
   -16.5506 -16.5436  -2.7257   0.8830   5.9954   6.5187

          k =-0.2571-0.3857 0.3857 (   847 PWs)   bands (ev):

   -16.8599 -16.8569 -16.8081 -16.7529 -16.7502 -16.6323 -16.6271 -16.6178
   -16.5473 -16.5443  -2.5041   0.5307   5.8283   6.6119

          k =-0.1928-0.3214 0.3214 (   843 PWs)   bands (ev):

   -16.8554 -16.8552 -16.8079 -16.7586 -16.7478 -16.6337 -16.6229 -16.6115
   -16.5472 -16.5468  -2.9093   1.1996   5.8267   6.8514

          k =-0.1286-0.2571 0.2571 (   854 PWs)   bands (ev):

   -16.8561 -16.8532 -16.8155 -16.7691 -16.7524 -16.6331 -16.6248 -16.6037
   -16.5587 -16.5509  -3.5161   2.4480   6.0064   7.2086

          k =-0.0643-0.1928 0.1928 (   857 PWs)   bands (ev):

   -16.8530 -16.8456 -16.8237 -16.7772 -16.7633 -16.6274 -16.6174 -16.5907
   -16.5705 -16.5579  -4.0414   3.9355   6.3931   7.6229

          k =-0.0000-0.1286 0.1286 (   867 PWs)   bands (ev):

   -16.8431 -16.8383 -16.8345 -16.7909 -16.7795 -16.6191 -16.6107 -16.5867
   -16.5808 -16.5666  -4.4009   5.3966   7.0649   7.9514

          k = 0.2571 0.0000 0.0000 (   861 PWs)   bands (ev):

   -16.8463 -16.8457 -16.8457 -16.7775 -16.7571 -16.6533 -16.5961 -16.5761
   -16.5761 -16.5660  -4.1323   4.6031   6.7129   6.7129

          k = 0.3214 0.0643-0.0643 (   855 PWs)   bands (ev):

   -16.8558 -16.8460 -16.8328 -16.7701 -16.7406 -16.6681 -16.6067 -16.5789
   -16.5681 -16.5580  -3.7721   3.5157   6.1823   6.3383

          k = 0.3857 0.1286-0.1286 (   847 PWs)   bands (ev):

   -16.8631 -16.8479 -16.8190 -16.7577 -16.7285 -16.6740 -16.6162 -16.5927
   -16.5566 -16.5453  -3.2461   2.2526   5.5617   6.1130

          k = 0.4500 0.1928-0.1928 (   848 PWs)   bands (ev):

   -16.8704 -16.8553 -16.8061 -16.7466 -16.7273 -16.6705 -16.6280 -16.6077
   -16.5481 -16.5363  -2.6366   1.1231   5.0495   6.0611

          k =-0.1928-0.4500 0.4500 (   846 PWs)   bands (ev):

   -16.8698 -16.8581 -16.7952 -16.7380 -16.7367 -16.6573 -16.6399 -16.6191
   -16.5448 -16.5337  -2.2311   0.5052   4.7176   6.1849

          k =-0.1286-0.3857 0.3857 (   843 PWs)   bands (ev):

   -16.8675 -16.8584 -16.7912 -16.7484 -16.7318 -16.6481 -16.6385 -16.6244
   -16.5431 -16.5354  -2.4706   0.8633   4.6030   6.4694

          k =-0.0643-0.3214 0.3214 (   847 PWs)   bands (ev):

   -16.8637 -16.8610 -16.7960 -16.7593 -16.7350 -16.6482 -16.6308 -16.6164
   -16.5445 -16.5426  -3.0638   1.8696   4.7603   6.8763

          k = 0.0000-0.2571 0.2571 (   849 PWs)   bands (ev):

   -16.8624 -16.8521 -16.8109 -16.7657 -16.7457 -16.6415 -16.6249 -16.5957
   -16.5584 -16.5499  -3.6273   3.0030   5.3129   7.3207

          k = 0.3857 0.0000 0.0000 (   849 PWs)   bands (ev):

   -16.8492 -16.8492 -16.8413 -16.7553 -16.7222 -16.6912 -16.6134 -16.5688
   -16.5597 -16.5597  -3.4710   2.9480   5.9376   5.9376

          k = 0.4500 0.0643-0.0643 (   844 PWs)   bands (ev):

   -16.8592 -16.8520 -16.8254 -16.7430 -16.7055 -16.7030 -16.6262 -16.5817
   -16.5511 -16.5454  -2.9936   2.0298   5.3802   5.6840

          k = 0.5143 0.1286-0.1286 (   848 PWs)   bands (ev):

   -16.8689 -16.8565 -16.8074 -16.7308 -16.7124 -16.6967 -16.6394 -16.6021
   -16.5442 -16.5354  -2.3915   1.0720   4.6557   5.6081

          k =-0.1286-0.5143 0.5143 (   842 PWs)   bands (ev):

   -16.8772 -16.8581 -16.7908 -16.7195 -16.7088 -16.6930 -16.6489 -16.6159
   -16.5399 -16.5260  -1.8595   0.3641   4.0965   5.7164

          k =-0.0643-0.4500 0.4500 (   843 PWs)   bands (ev):

   -16.8775 -16.8588 -16.7823 -16.7224 -16.7132 -16.6746 -16.6618 -16.6273
   -16.5383 -16.5256  -1.9198   0.4457   3.8425   5.9968

          k = 0.0000-0.3857 0.3857 (   855 PWs)   bands (ev):

   -16.8771 -16.8663 -16.7862 -16.7463 -16.7209 -16.6625 -16.6498 -16.6284
   -16.5425 -16.5329  -2.4813   1.1540   4.0168   6.4121

          k = 0.5143 0.0000 0.0000 (   842 PWs)   bands (ev):

   -16.8554 -16.8554 -16.8260 -16.7280 -16.7233 -16.6820 -16.6370 -16.5819
   -16.5463 -16.5463  -2.5637   1.3655   5.3916   5.3916

          k = 0.5785 0.0643-0.0643 (   843 PWs)   bands (ev):

   -16.8648 -16.8569 -16.8076 -16.7435 -16.7116 -16.6683 -16.6513 -16.6002
   -16.5374 -16.5364  -1.9861   0.5801   4.8869   5.2750

          k =-0.0643-0.5785 0.5785 (   841 PWs)   bands (ev):

   -16.8745 -16.8569 -16.7882 -16.7400 -16.6983 -16.6695 -16.6662 -16.6190
   -16.5325 -16.5264  -1.3827  -0.0967   4.1790   5.3461

          k = 0.0000-0.5143 0.5143 (   834 PWs)   bands (ev):

   -16.8775 -16.8586 -16.7807 -16.7097 -16.6978 -16.6877 -16.6653 -16.6249
   -16.5319 -16.5202  -1.3666  -0.0906   3.7376   5.5971

          k = 0.6428 0.0000 0.0000 (   834 PWs)   bands (ev):

   -16.8539 -16.8539 -16.8001 -16.7658 -16.6978 -16.6673 -16.6435 -16.6083
   -16.5307 -16.5307  -1.4325  -0.1092   5.1117   5.1117

          k =-0.0000-0.6428 0.6428 (   832 PWs)   bands (ev):

   -16.8605 -16.8577 -16.7835 -16.7747 -16.6791 -16.6764 -16.6341 -16.6241
   -16.5295 -16.5274  -0.8429  -0.7145   4.7213   5.1363

          k = 0.2571 0.1286 0.0000 (   852 PWs)   bands (ev):

   -16.8540 -16.8447 -16.8267 -16.7750 -16.7531 -16.6468 -16.6054 -16.5818
   -16.5731 -16.5569  -4.0048   4.0313   6.1776   7.1414

          k = 0.3214 0.1928-0.0643 (   851 PWs)   bands (ev):

   -16.8608 -16.8515 -16.8155 -16.7656 -16.7422 -16.6565 -16.6149 -16.5965
   -16.5592 -16.5497  -3.5310   2.7688   5.5233   6.8113

          k = 0.3857 0.2571-0.1286 (   849 PWs)   bands (ev):

   -16.8638 -16.8573 -16.8041 -16.7562 -16.7359 -16.6568 -16.6217 -16.6138
   -16.5491 -16.5422  -2.9342   1.5263   5.1714   6.4699

          k =-0.2571-0.3857 0.5143 (   845 PWs)   bands (ev):

   -16.8665 -16.8590 -16.7980 -16.7479 -16.7358 -16.6498 -16.6309 -16.6224
   -16.5437 -16.5369  -2.4045   0.6473   5.0194   6.2684

          k = 0.3857 0.1286 0.0000 (   846 PWs)   bands (ev):

   -16.8598 -16.8530 -16.8233 -16.7549 -16.7228 -16.6824 -16.6149 -16.5856
   -16.5565 -16.5486  -3.3549   2.6335   5.4337   6.1307

          k = 0.4500 0.1928-0.0643 (   843 PWs)   bands (ev):

   -16.8658 -16.8591 -16.8036 -16.7428 -16.7129 -16.6891 -16.6269 -16.6045
   -16.5437 -16.5375  -2.7882   1.6118   4.8168   5.8322

          k =-0.1928-0.4500 0.5785 (   847 PWs)   bands (ev):

   -16.8751 -16.8613 -16.7919 -16.7338 -16.7143 -16.6847 -16.6408 -16.6206
   -16.5388 -16.5309  -2.1917   0.7084   4.3918   5.6854

          k =-0.1286-0.3857 0.5143 (   849 PWs)   bands (ev):

   -16.8770 -16.8645 -16.7839 -16.7328 -16.7176 -16.6751 -16.6490 -16.6291
   -16.5387 -16.5290  -1.9718   0.4145   4.1699   5.7699

          k =-0.0643-0.3214 0.4500 (   843 PWs)   bands (ev):

   -16.8702 -16.8629 -16.7842 -16.7429 -16.7172 -16.6696 -16.6375 -16.6274
   -16.5395 -16.5323  -2.4070   1.0147   4.2089   6.0575

          k = 0.0000-0.2571 0.3857 (   849 PWs)   bands (ev):

   -16.8649 -16.8641 -16.7985 -16.7545 -16.7265 -16.6685 -16.6241 -16.6149
   -16.5438 -16.5430  -3.0154   1.9361   4.6223   6.4657

          k = 0.5143 0.1286 0.0000 (   850 PWs)   bands (ev):

   -16.8656 -16.8609 -16.8101 -16.7293 -16.7218 -16.6908 -16.6406 -16.5997
   -16.5408 -16.5405  -2.4688   1.2361   4.9461   5.3506

          k =-0.1286-0.5143 0.6428 (   850 PWs)   bands (ev):

   -16.8734 -16.8657 -16.7902 -16.7256 -16.7165 -16.6844 -16.6541 -16.6183
   -16.5358 -16.5304  -1.8503   0.4487   4.3469   5.1767

          k =-0.0643-0.4500 0.5785 (   843 PWs)   bands (ev):

   -16.8785 -16.8639 -16.7767 -16.7133 -16.7041 -16.6875 -16.6656 -16.6328
   -16.5321 -16.5230  -1.4543   0.0087   3.8704   5.2861

          k = 0.0000-0.3857 0.5143 (   848 PWs)   bands (ev):

   -16.8779 -16.8660 -16.7752 -16.7234 -16.7009 -16.6889 -16.6625 -16.6363
   -16.5341 -16.5259  -1.8068   0.3979   3.7721   5.6059

          k =-0.0643-0.5785 0.7071 (   847 PWs)   bands (ev):

   -16.8654 -16.8646 -16.7887 -16.7579 -16.6992 -16.6688 -16.6548 -16.6222
   -16.5310 -16.5304  -1.3759  -0.1210   4.7563   4.8875

          k = 0.0000-0.5143 0.6428 (   844 PWs)   bands (ev):

   -16.8760 -16.8626 -16.7739 -16.7470 -16.6894 -16.6769 -16.6612 -16.6350
   -16.5306 -16.5241  -0.9427  -0.5323   4.1780   4.9562

          k =-0.1928-0.4500 0.7071 (   851 PWs)   bands (ev):

   -16.8719 -16.8698 -16.7871 -16.7330 -16.7015 -16.6993 -16.6440 -16.6259
   -16.5351 -16.5331  -2.1999   0.8790   4.2342   5.3970

          k =-0.1286-0.3857 0.6428 (   850 PWs)   bands (ev):

   -16.8777 -16.8726 -16.7717 -16.7226 -16.7033 -16.6922 -16.6602 -16.6375
   -16.5317 -16.5255  -1.6366   0.2204   3.9652   5.0951

          k =-0.0643-0.4500 0.7071 (   853 PWs)   bands (ev):

   -16.8756 -16.8749 -16.7636 -16.7357 -16.7041 -16.6719 -16.6707 -16.6437
   -16.5302 -16.5270  -1.2322  -0.1837   4.2115   4.5996

          k = 0.0000-0.3857 0.6428 (   851 PWs)   bands (ev):

   -16.8803 -16.8735 -16.7574 -16.7259 -16.7008 -16.6799 -16.6739 -16.6488
   -16.5282 -16.5246  -1.0685  -0.3316   3.9709   4.6306

     highest occupied level (ev):     8.1473

!    total energy              =    -426.13919171 Ry
     estimated scf accuracy    <       0.00000003 Ry

     The total energy is the sum of the following terms:
     one-electron contribution =    -278.97997934 Ry
     hartree contribution      =     164.83332591 Ry
     xc contribution           =    -114.49806321 Ry
     ewald contribution        =    -197.49447506 Ry

     convergence has been achieved in   6 iterations

     Forces acting on atoms (cartesian axes, Ry/au):

     atom    1 type  1   force =    -0.00000000   -0.00000000   -0.00000000
     atom    2 type  1   force =     0.00000000    0.00000000    0.00000000

     Total force =     0.000000     Total SCF correction =     0.000000


     Computing stress (Cartesian axis) and pressure

          total   stress  (Ry/bohr**3)                   (kbar)     P=     -160.13
  -0.00108855  -0.00000000   0.00000000         -160.13       -0.00        0.00
  -0.00000000  -0.00108855   0.00000000           -0.00     -160.13        0.00
   0.00000000   0.00000000  -0.00108855            0.00        0.00     -160.13

     Message from routine punch:
     Nothing written, as per user request (disk_io='none')

     init_run     :      1.09s CPU      1.23s WALL (       1 calls)
     electrons    :      9.62s CPU     10.29s WALL (       1 calls)
     forces       :      0.11s CPU      0.11s WALL (       1 calls)
     stress       :      0.75s CPU      0.76s WALL (       1 calls)

     Called by init_run:
     wfcinit      :      0.66s CPU      0.72s WALL (       1 calls)
     potinit      :      0.02s CPU      0.05s WALL (       1 calls)
     hinit0       :      0.37s CPU      0.38s WALL (       1 calls)

     Called by electrons:
     c_bands      :      7.88s CPU      8.38s WALL (       7 calls)
     sum_band     :      1.55s CPU      1.69s WALL (       7 calls)
     v_of_rho     :      0.02s CPU      0.02s WALL (       7 calls)
     newd         :      0.19s CPU      0.25s WALL (       7 calls)
     mix_rho      :      0.01s CPU      0.01s WALL (       7 calls)

     Called by c_bands:
     init_us_2    :      0.34s CPU      0.38s WALL (     952 calls)
     cegterg      :      7.12s CPU      7.56s WALL (     392 calls)

     Called by *egterg:
     cdiaghg      :      0.37s CPU      0.38s WALL (    1326 calls)
     h_psi        :      6.34s CPU      6.78s WALL (    1438 calls)
     s_psi        :      0.18s CPU      0.19s WALL (    1438 calls)
     g_psi        :      0.04s CPU      0.04s WALL (     990 calls)

     Called by h_psi:
     h_psi:calbec :      0.24s CPU      0.28s WALL (    1438 calls)
     vloc_psi     :      5.84s CPU      6.24s WALL (    1438 calls)
     add_vuspsi   :      0.20s CPU      0.20s WALL (    1438 calls)

     General routines
     calbec       :      0.48s CPU      0.52s WALL (    2782 calls)
     fft          :      0.18s CPU      0.19s WALL (      37 calls)
     ffts         :      0.00s CPU      0.00s WALL (       7 calls)
     fftw         :      5.47s CPU      5.84s WALL (   35994 calls)

     Parallel routines

     PWSCF        :     11.72s CPU     12.54s WALL


   This run was terminated on:  23:56:22   7Oct2025            

=------------------------------------------------------------------------------=
   JOB DONE.
=------------------------------------------------------------------------------=
