
     Program PWSCF v.7.4.1 starts on 20Oct2025 at 17:54:20 

     This program is part of the open-source Quantum ESPRESSO suite
     for quantum simulation of materials; please cite
         "P. Giannozzi et al., J. Phys.:Condens. Matter 21 395502 (2009);
         "P. Giannozzi et al., J. Phys.:Condens. Matter 29 465901 (2017);
         "P. Giannozzi et al., J. Chem. Phys. 152 154105 (2020);
          URL http://www.quantum-espresso.org", 
     in publications or presentations arising from this work. More details at
     http://www.quantum-espresso.org/quote

     Parallel version (MPI), running on     2 processors

     MPI processes distributed on     1 nodes
     263 MiB available memory on the printing compute node when the environment starts

     Waiting for input...
     Reading input from standard input

     Current dimensions of program PWSCF are:
     Max number of different atomic species (ntypx) = 10
     Max number of k-points (npk) =  40000
     Max angular momentum in pseudopotentials (lmaxx) =  4
     file Fe.pbe-nd-rrkjus.UPF: wavefunction(s)  4S renormalized
     Message from routine find_sym:
     Not a group! Trying with lower acceptance parameter...
     Message from routine find_sym:
     Symmetry operations form a group
     Message from routine setup:
     using ibrav=0 with symmetry is DISCOURAGED, use correct ibrav instead

     R & G space division:  proc/nbgrp/npool/nimage =       2
     Subspace diagonalization in iterative solution of the eigenvalue problem:
     a serial algorithm will be used


     Parallelization info
     --------------------
     sticks:   dense  smooth     PW     G-vecs:    dense   smooth      PW
     Min         273     105     36                 7823     1983     380
     Max         274     106     37                 7826     1986     381
     Sum         547     211     73                15649     3969     761

     Using Slab Decomposition



     bravais-lattice index     =            0
     lattice parameter (alat)  =       5.1023  a.u.
     unit-cell volume          =     178.9386 (a.u.)^3
     number of atoms/cell      =            2
     number of atomic types    =            1
     number of electrons       =        16.00
     number of Kohn-Sham states=           12
     kinetic-energy cutoff     =      30.0000  Ry
     charge density cutoff     =     300.0000  Ry
     scf convergence threshold =      1.0E-07
     mixing beta               =       0.5000
     number of iterations used =            8  plain     mixing
     energy convergence thresh.=      1.0E-04
     force convergence thresh. =      1.0E-03
     press convergence thresh. =      5.0E-01
     Exchange-correlation=  SLA  PW   PBE  PBE
                           (   1   4   3   4   0   0   0)
     nstep                     =           50


     celldm(1)=   5.102261  celldm(2)=   0.000000  celldm(3)=   0.000000
     celldm(4)=   0.000000  celldm(5)=   0.000000  celldm(6)=   0.000000

     crystal axes: (cart. coord. in units of alat)
               a(1) = (   1.000000   0.000000   0.000000 )  
               a(2) = (  -0.500000   0.866025   0.000000 )  
               a(3) = (   0.000000   0.000000   1.555556 )  

     reciprocal axes: (cart. coord. in units 2 pi/alat)
               b(1) = (  1.000000  0.577350 -0.000000 )  
               b(2) = (  0.000000  1.154701  0.000000 )  
               b(3) = (  0.000000 -0.000000  0.642857 )  


     PseudoPot. # 1 for Fe read from file:
     /home/bond/Software/QE/qe-7.4.1/pseudo/Fe.pbe-nd-rrkjus.UPF
     MD5 check sum: 398036227a04b607635f6f5e8dfd8242
     Pseudo is Ultrasoft + core correction, Zval =  8.0
     Generated by new atomic code, or converted to UPF format
     Using radial grid of  957 points,  6 beta functions with: 
                l(1) =   0
                l(2) =   0
                l(3) =   1
                l(4) =   1
                l(5) =   2
                l(6) =   2
     Q(r) pseudized with 0 coefficients 


     atomic species   valence    mass     pseudopotential
     Fe                8.00    55.84500     Fe( 1.00)

     Starting magnetic structure 
     atomic species   magnetization
     Fe              0.700

      4 Sym. Ops. (no inversion) found



   Cartesian axes

     site n.     atom                  positions (alat units)
         1        Fe     tau(   1) = (   0.0000000   0.0000000   0.0000000  )
         2        Fe     tau(   2) = (   0.0000000   0.5773519   0.7777778  )

     number of k points=    63  Methfessel-Paxton smearing, width (Ry)=  0.0200
                       cart. coord. in units 2pi/alat
        k(    1) = (   0.0000000   0.0000000   0.0000000), wk =   0.0039062
        k(    2) = (   0.0000000   0.0000000   0.1607143), wk =   0.0078125
        k(    3) = (   0.0000000   0.0000000  -0.3214286), wk =   0.0039062
        k(    4) = (   0.0000000   0.1443376   0.0000000), wk =   0.0078125
        k(    5) = (   0.0000000   0.1443376   0.1607143), wk =   0.0156250
        k(    6) = (   0.0000000   0.1443376  -0.3214286), wk =   0.0078125
        k(    7) = (   0.0000000   0.2886751   0.0000000), wk =   0.0078125
        k(    8) = (   0.0000000   0.2886751   0.1607143), wk =   0.0156250
        k(    9) = (   0.0000000   0.2886751  -0.3214286), wk =   0.0078125
        k(   10) = (   0.0000000   0.4330127   0.0000000), wk =   0.0078125
        k(   11) = (   0.0000000   0.4330127   0.1607143), wk =   0.0156250
        k(   12) = (   0.0000000   0.4330127  -0.3214286), wk =   0.0078125
        k(   13) = (   0.0000000  -0.5773503   0.0000000), wk =   0.0039062
        k(   14) = (   0.0000000  -0.5773503   0.1607143), wk =   0.0078125
        k(   15) = (   0.0000000  -0.5773503  -0.3214286), wk =   0.0039062
        k(   16) = (   0.1250000   0.2165064   0.0000000), wk =   0.0156250
        k(   17) = (   0.1250000   0.2165064   0.1607143), wk =   0.0312500
        k(   18) = (   0.1250000   0.2165064  -0.3214286), wk =   0.0156250
        k(   19) = (   0.1250000   0.3608439   0.0000000), wk =   0.0156250
        k(   20) = (   0.1250000   0.3608439   0.1607143), wk =   0.0312500
        k(   21) = (   0.1250000   0.3608439  -0.3214286), wk =   0.0156250
        k(   22) = (   0.1250000   0.5051815   0.0000000), wk =   0.0156250
        k(   23) = (   0.1250000   0.5051815   0.1607143), wk =   0.0312500
        k(   24) = (   0.1250000   0.5051815  -0.3214286), wk =   0.0156250
        k(   25) = (   0.2500000   0.4330127   0.0000000), wk =   0.0156250
        k(   26) = (   0.2500000   0.4330127   0.1607143), wk =   0.0312500
        k(   27) = (   0.2500000   0.4330127  -0.3214286), wk =   0.0156250
        k(   28) = (   0.2500000   0.5773503   0.0000000), wk =   0.0078125
        k(   29) = (   0.2500000   0.5773503   0.1607143), wk =   0.0156250
        k(   30) = (   0.2500000   0.5773503  -0.3214286), wk =   0.0078125
        k(   31) = (   0.1250000  -0.0721688   0.0000000), wk =   0.0156250
        k(   32) = (   0.1250000  -0.0721688   0.1607143), wk =   0.0312500
        k(   33) = (   0.1250000  -0.0721688  -0.3214286), wk =   0.0156250
        k(   34) = (   0.2500000  -0.1443376   0.0000000), wk =   0.0156250
        k(   35) = (   0.2500000  -0.1443376   0.1607143), wk =   0.0312500
        k(   36) = (   0.2500000  -0.1443376  -0.3214286), wk =   0.0156250
        k(   37) = (   0.3750000  -0.2165064   0.0000000), wk =   0.0156250
        k(   38) = (   0.3750000  -0.2165064   0.1607143), wk =   0.0312500
        k(   39) = (   0.3750000  -0.2165064  -0.3214286), wk =   0.0156250
        k(   40) = (  -0.5000000   0.2886751   0.0000000), wk =   0.0078125
        k(   41) = (  -0.5000000   0.2886751   0.1607143), wk =   0.0156250
        k(   42) = (  -0.5000000   0.2886751  -0.3214286), wk =   0.0078125
        k(   43) = (   0.2500000   0.0000000   0.0000000), wk =   0.0078125
        k(   44) = (   0.2500000   0.0000000  -0.1607143), wk =   0.0156250
        k(   45) = (   0.2500000   0.0000000   0.3214286), wk =   0.0078125
        k(   46) = (   0.2500000  -0.2886751   0.0000000), wk =   0.0156250
        k(   47) = (   0.3750000  -0.0721688   0.0000000), wk =   0.0156250
        k(   48) = (   0.2500000  -0.2886751   0.1607143), wk =   0.0312500
        k(   49) = (   0.3750000  -0.0721688  -0.1607143), wk =   0.0312500
        k(   50) = (   0.2500000  -0.2886751  -0.3214286), wk =   0.0156250
        k(   51) = (   0.3750000  -0.0721688   0.3214286), wk =   0.0156250
        k(   52) = (   0.3750000  -0.3608439   0.0000000), wk =   0.0156250
        k(   53) = (   0.5000000  -0.1443376   0.0000000), wk =   0.0156250
        k(   54) = (   0.3750000  -0.3608439   0.1607143), wk =   0.0312500
        k(   55) = (   0.5000000  -0.1443376  -0.1607143), wk =   0.0312500
        k(   56) = (   0.3750000  -0.3608439  -0.3214286), wk =   0.0156250
        k(   57) = (   0.5000000  -0.1443376   0.3214286), wk =   0.0156250
        k(   58) = (   0.5000000   0.0000000   0.0000000), wk =   0.0078125
        k(   59) = (   0.5000000   0.0000000  -0.1607143), wk =   0.0156250
        k(   60) = (   0.5000000   0.0000000   0.3214286), wk =   0.0078125
        k(   61) = (   0.3750000  -0.5051815   0.0000000), wk =   0.0156250
        k(   62) = (   0.3750000  -0.5051815   0.1607143), wk =   0.0312500
        k(   63) = (   0.3750000  -0.5051815  -0.3214286), wk =   0.0156250

     Dense  grid:    15649 G-vectors     FFT dimensions: (  30,  30,  45)

     Smooth grid:     3969 G-vectors     FFT dimensions: (  18,  18,  27)

     Estimated max dynamical RAM per process >      40.68 MB

     Estimated total dynamical RAM >      81.35 MB

     Check: negative core charge=   -0.000008
     Generating pointlists ...
     new r_m :   0.3996 (alat units)  2.0387 (a.u.) for type    1

     Initial potential from superposition of free atoms

     starting charge      15.9987, renormalised to      16.0000
     Starting wfcs are   12 randomized atomic wfcs

     total cpu time spent up to now is        0.9 secs

     Self-consistent Calculation

     iteration #  1     ecut=    30.00 Ry     beta= 0.50
     Davidson diagonalization with overlap
     ethr =  1.00E-02,  avg # of iterations =  3.7

     total cpu time spent up to now is        2.0 secs

     total energy              =    -111.34490265 Ry
     estimated scf accuracy    <       0.57256796 Ry

     total magnetization       =     6.77 Bohr mag/cell
     absolute magnetization    =     6.77 Bohr mag/cell

     iteration #  2     ecut=    30.00 Ry     beta= 0.50
     Davidson diagonalization with overlap
     ethr =  3.58E-03,  avg # of iterations =  2.1

     total cpu time spent up to now is        2.8 secs

     total energy              =    -111.52827894 Ry
     estimated scf accuracy    <       0.06161162 Ry

     total magnetization       =     6.14 Bohr mag/cell
     absolute magnetization    =     6.16 Bohr mag/cell

     iteration #  3     ecut=    30.00 Ry     beta= 0.50
     Davidson diagonalization with overlap
     ethr =  3.85E-04,  avg # of iterations =  1.7

     total cpu time spent up to now is        3.5 secs

     total energy              =    -111.55946944 Ry
     estimated scf accuracy    <       0.00968690 Ry

     total magnetization       =     6.07 Bohr mag/cell
     absolute magnetization    =     6.12 Bohr mag/cell

     iteration #  4     ecut=    30.00 Ry     beta= 0.50
     Davidson diagonalization with overlap
     ethr =  6.05E-05,  avg # of iterations =  2.7

     total cpu time spent up to now is        4.2 secs

     total energy              =    -111.56771272 Ry
     estimated scf accuracy    <       0.00202031 Ry

     total magnetization       =     5.59 Bohr mag/cell
     absolute magnetization    =     5.81 Bohr mag/cell

     iteration #  5     ecut=    30.00 Ry     beta= 0.50
     Davidson diagonalization with overlap
     ethr =  1.26E-05,  avg # of iterations =  1.9

     total cpu time spent up to now is        5.0 secs

     total energy              =    -111.56804537 Ry
     estimated scf accuracy    <       0.00258408 Ry

     total magnetization       =     5.56 Bohr mag/cell
     absolute magnetization    =     5.80 Bohr mag/cell

     iteration #  6     ecut=    30.00 Ry     beta= 0.50
     Davidson diagonalization with overlap
     ethr =  1.26E-05,  avg # of iterations =  1.0

     total cpu time spent up to now is        5.6 secs

     total energy              =    -111.56845784 Ry
     estimated scf accuracy    <       0.00053946 Ry

     total magnetization       =     5.55 Bohr mag/cell
     absolute magnetization    =     5.80 Bohr mag/cell

     iteration #  7     ecut=    30.00 Ry     beta= 0.50
     Davidson diagonalization with overlap
     ethr =  3.37E-06,  avg # of iterations =  1.8

     total cpu time spent up to now is        6.3 secs

     total energy              =    -111.56865418 Ry
     estimated scf accuracy    <       0.00007867 Ry

     total magnetization       =     5.52 Bohr mag/cell
     absolute magnetization    =     5.79 Bohr mag/cell

     iteration #  8     ecut=    30.00 Ry     beta= 0.50
     Davidson diagonalization with overlap
     ethr =  4.92E-07,  avg # of iterations =  3.7

     total cpu time spent up to now is        7.2 secs

     total energy              =    -111.56869379 Ry
     estimated scf accuracy    <       0.00002326 Ry

     total magnetization       =     5.50 Bohr mag/cell
     absolute magnetization    =     5.78 Bohr mag/cell

     iteration #  9     ecut=    30.00 Ry     beta= 0.50
     Davidson diagonalization with overlap
     ethr =  1.45E-07,  avg # of iterations =  4.0

     total cpu time spent up to now is        8.2 secs

     total energy              =    -111.56870979 Ry
     estimated scf accuracy    <       0.00000378 Ry

     total magnetization       =     5.50 Bohr mag/cell
     absolute magnetization    =     5.78 Bohr mag/cell

     iteration # 10     ecut=    30.00 Ry     beta= 0.50
     Davidson diagonalization with overlap
     ethr =  2.36E-08,  avg # of iterations =  5.2

     total cpu time spent up to now is        9.4 secs

     total energy              =    -111.56871371 Ry
     estimated scf accuracy    <       0.00000099 Ry

     total magnetization       =     5.50 Bohr mag/cell
     absolute magnetization    =     5.78 Bohr mag/cell

     iteration # 11     ecut=    30.00 Ry     beta= 0.50
     Davidson diagonalization with overlap
     ethr =  6.17E-09,  avg # of iterations =  4.3

     total cpu time spent up to now is       10.4 secs

     total energy              =    -111.56871404 Ry
     estimated scf accuracy    <       0.00000207 Ry

     total magnetization       =     5.49 Bohr mag/cell
     absolute magnetization    =     5.78 Bohr mag/cell

     iteration # 12     ecut=    30.00 Ry     beta= 0.50
     Davidson diagonalization with overlap
     ethr =  6.17E-09,  avg # of iterations =  2.5

     Magnetic moment per site  (integrated on atomic sphere of radius R)
     atom   1 (R=0.400)  charge=  6.6264  magn=  2.8079
     atom   2 (R=0.400)  charge=  6.6256  magn=  2.8080

     total cpu time spent up to now is       11.3 secs

     End of self-consistent calculation

     Number of k-points >= 100: set verbosity='high' to print the bands.

     the Fermi energy is    11.5941 ev

!    total energy              =    -111.56871451 Ry
     estimated scf accuracy    <          9.7E-09 Ry
     smearing contrib. (-TS)   =      -0.00007540 Ry
     internal energy E=F+TS    =    -111.56863911 Ry

     The total energy is F=E-TS. E is the sum of the following terms:
     one-electron contribution =       9.10418371 Ry
     hartree contribution      =      14.78749546 Ry
     xc contribution           =     -52.83195423 Ry
     ewald contribution        =     -82.62836405 Ry

     total magnetization       =     5.50 Bohr mag/cell
     absolute magnetization    =     5.78 Bohr mag/cell

     convergence has been achieved in  12 iterations

     Forces acting on atoms (cartesian axes, Ry/au):

     atom    1 type  1   force =     0.00000000   -0.00000128    0.00000000
     atom    2 type  1   force =     0.00000000    0.00000128    0.00000000

     Total force =     0.000002     Total SCF correction =     0.000003
     SCF correction compared to forces is large: reduce conv_thr to get better values


     Computing stress (Cartesian axis) and pressure

          total   stress  (Ry/bohr**3)                   (kbar)     P=     -105.25
  -0.00101447   0.00000000   0.00000000         -149.23        0.00        0.00
   0.00000000  -0.00101452   0.00000000            0.00     -149.24        0.00
   0.00000000   0.00000000  -0.00011751            0.00        0.00      -17.29


     BFGS Geometry Optimization
     Energy error            =      9.7E-03 Ry
     Gradient error          =      1.3E-06 Ry/Bohr
     Cell gradient error     =      1.5E+02 kbar

     number of scf cycles    =   1
     number of bfgs steps    =   0

     enthalpy           new  =    -111.5687145077 Ry

     new trust radius        =       0.0678552934 bohr
     new conv_thr            =       0.0000001000 Ry

     new unit-cell volume =    169.47775 a.u.^3 (    25.11401 Ang^3 )
     density =      7.38495 g/cm^3

CELL_PARAMETERS (angstrom)
   2.631523409   0.000000000   0.000000000
  -1.315761705   2.278962935   0.000000000
   0.000000000   0.000000000   4.187661575

ATOMIC_POSITIONS (angstrom)
Fe               0.0000000000       -0.0000006585        0.0000000000
Fe               0.0000000000        1.5193134467        2.0938307877


     Message from routine punch:
     Nothing written, as per user request (disk_io='none')
     NEW-OLD atomic charge density approx. for the potential
     New effective cutoffs (rho, wfc):  315.66   31.57

     Check: negative core charge=   -0.000005
     Generating pointlists ...
     new r_m :   0.3952 (alat units)  2.0166 (a.u.) for type    1

     total cpu time spent up to now is       11.8 secs

     Self-consistent Calculation

     iteration #  1     ecut=    30.00 Ry     beta= 0.50
     Davidson diagonalization with overlap
     ethr =  1.00E-06,  avg # of iterations =  6.4

     total cpu time spent up to now is       13.6 secs

     total energy              =    -111.57574841 Ry
     estimated scf accuracy    <       0.00048708 Ry

     total magnetization       =     5.41 Bohr mag/cell
     absolute magnetization    =     5.69 Bohr mag/cell

     iteration #  2     ecut=    30.00 Ry     beta= 0.50
     Davidson diagonalization with overlap
     ethr =  3.04E-06,  avg # of iterations =  1.1

     total cpu time spent up to now is       14.4 secs

     total energy              =    -111.57584164 Ry
     estimated scf accuracy    <       0.00020286 Ry

     total magnetization       =     5.40 Bohr mag/cell
     absolute magnetization    =     5.68 Bohr mag/cell

     iteration #  3     ecut=    30.00 Ry     beta= 0.50
     Davidson diagonalization with overlap
     ethr =  1.27E-06,  avg # of iterations =  2.1

     total cpu time spent up to now is       15.1 secs

     total energy              =    -111.57570303 Ry
     estimated scf accuracy    <       0.00344268 Ry

     total magnetization       =     5.39 Bohr mag/cell
     absolute magnetization    =     5.66 Bohr mag/cell

     iteration #  4     ecut=    30.00 Ry     beta= 0.50
     Davidson diagonalization with overlap
     ethr =  1.27E-06,  avg # of iterations =  1.8

     total cpu time spent up to now is       15.8 secs

     total energy              =    -111.57592940 Ry
     estimated scf accuracy    <       0.00008887 Ry

     total magnetization       =     5.38 Bohr mag/cell
     absolute magnetization    =     5.65 Bohr mag/cell

     iteration #  5     ecut=    30.00 Ry     beta= 0.50
     Davidson diagonalization with overlap
     ethr =  5.55E-07,  avg # of iterations =  1.5

     total cpu time spent up to now is       16.6 secs

     total energy              =    -111.57594557 Ry
     estimated scf accuracy    <       0.00000510 Ry

     total magnetization       =     5.38 Bohr mag/cell
     absolute magnetization    =     5.64 Bohr mag/cell

     iteration #  6     ecut=    30.00 Ry     beta= 0.50
     Davidson diagonalization with overlap
     ethr =  3.19E-08,  avg # of iterations =  3.4

     total cpu time spent up to now is       17.5 secs

     total energy              =    -111.57594980 Ry
     estimated scf accuracy    <       0.00000070 Ry

     total magnetization       =     5.37 Bohr mag/cell
     absolute magnetization    =     5.63 Bohr mag/cell

     iteration #  7     ecut=    30.00 Ry     beta= 0.50
     Davidson diagonalization with overlap
     ethr =  4.39E-09,  avg # of iterations =  4.1

     Magnetic moment per site  (integrated on atomic sphere of radius R)
     atom   1 (R=0.395)  charge=  6.6326  magn=  2.7374
     atom   2 (R=0.395)  charge=  6.6312  magn=  2.7378

     total cpu time spent up to now is       18.5 secs

     End of self-consistent calculation

     Number of k-points >= 100: set verbosity='high' to print the bands.

     the Fermi energy is    12.3557 ev

!    total energy              =    -111.57595032 Ry
     estimated scf accuracy    <       0.00000007 Ry
     smearing contrib. (-TS)   =      -0.00043327 Ry
     internal energy E=F+TS    =    -111.57551706 Ry

     The total energy is F=E-TS. E is the sum of the following terms:
     one-electron contribution =      11.28573492 Ry
     hartree contribution      =      14.17950852 Ry
     xc contribution           =     -52.88310736 Ry
     ewald contribution        =     -84.15765315 Ry

     total magnetization       =     5.37 Bohr mag/cell
     absolute magnetization    =     5.63 Bohr mag/cell

     convergence has been achieved in   7 iterations

     Forces acting on atoms (cartesian axes, Ry/au):

     atom    1 type  1   force =     0.00000000   -0.00000124    0.00000000
     atom    2 type  1   force =     0.00000000    0.00000124    0.00000000

     Total force =     0.000002     Total SCF correction =     0.000001
     SCF correction compared to forces is large: reduce conv_thr to get better values


     Computing stress (Cartesian axis) and pressure

          total   stress  (Ry/bohr**3)                   (kbar)     P=      -42.03
  -0.00058351   0.00000000   0.00000000          -85.84        0.00        0.00
   0.00000000  -0.00058356   0.00000000            0.00      -85.84        0.00
   0.00000000   0.00000000   0.00030987            0.00        0.00       45.58

     Energy error            =      7.2E-03 Ry
     Gradient error          =      1.2E-06 Ry/Bohr
     Cell gradient error     =      8.6E+01 kbar

     number of scf cycles    =   2
     number of bfgs steps    =   1

     enthalpy           old  =    -111.5687145077 Ry
     enthalpy           new  =    -111.5759503235 Ry

     CASE: enthalpy          _new < enthalpy          _old

     new trust radius        =       0.1016333963 bohr
     new conv_thr            =       0.0000000010 Ry

     new unit-cell volume =    158.86913 a.u.^3 (    23.54198 Ang^3 )
     density =      7.87808 g/cm^3

CELL_PARAMETERS (angstrom)
   2.528810992   0.000000000   0.000000000
  -1.264405496   2.190004453   0.000000000
   0.000000000   0.000000000   4.250906470

ATOMIC_POSITIONS (angstrom)
Fe               0.0000000000       -0.0000021166       -0.0000000000
Fe               0.0000000000        1.4600090872        2.1254532352


     Message from routine punch:
     Nothing written, as per user request (disk_io='none')
     NEW-OLD atomic charge density approx. for the potential
     New effective cutoffs (rho, wfc):  341.75   34.18

     Check: negative core charge=   -0.000002
     Generating pointlists ...
     new r_m :   0.3863 (alat units)  1.9712 (a.u.) for type    1

     total cpu time spent up to now is       19.0 secs

     Self-consistent Calculation

     iteration #  1     ecut=    30.00 Ry     beta= 0.50
     Davidson diagonalization with overlap
     ethr =  1.00E-06,  avg # of iterations =  7.7

     total cpu time spent up to now is       21.2 secs

     total energy              =    -111.57936396 Ry
     estimated scf accuracy    <       0.00149948 Ry

     total magnetization       =     5.26 Bohr mag/cell
     absolute magnetization    =     5.51 Bohr mag/cell

     iteration #  2     ecut=    30.00 Ry     beta= 0.50
     Davidson diagonalization with overlap
     ethr =  9.37E-06,  avg # of iterations =  1.1

     total cpu time spent up to now is       21.8 secs

     total energy              =    -111.57927375 Ry
     estimated scf accuracy    <       0.00107948 Ry

     total magnetization       =     5.26 Bohr mag/cell
     absolute magnetization    =     5.50 Bohr mag/cell

     iteration #  3     ecut=    30.00 Ry     beta= 0.50
     Davidson diagonalization with overlap
     ethr =  6.75E-06,  avg # of iterations =  1.9

     total cpu time spent up to now is       22.6 secs

     total energy              =    -111.57901588 Ry
     estimated scf accuracy    <       0.01167820 Ry

     total magnetization       =     5.25 Bohr mag/cell
     absolute magnetization    =     5.49 Bohr mag/cell

     iteration #  4     ecut=    30.00 Ry     beta= 0.50
     Davidson diagonalization with overlap
     ethr =  6.75E-06,  avg # of iterations =  1.3

     total cpu time spent up to now is       23.2 secs

     total energy              =    -111.57974950 Ry
     estimated scf accuracy    <       0.00008247 Ry

     total magnetization       =     5.25 Bohr mag/cell
     absolute magnetization    =     5.48 Bohr mag/cell

     iteration #  5     ecut=    30.00 Ry     beta= 0.50
     Davidson diagonalization with overlap
     ethr =  5.15E-07,  avg # of iterations =  2.2

     total cpu time spent up to now is       24.0 secs

     total energy              =    -111.57978104 Ry
     estimated scf accuracy    <       0.00001394 Ry

     total magnetization       =     5.25 Bohr mag/cell
     absolute magnetization    =     5.47 Bohr mag/cell

     iteration #  6     ecut=    30.00 Ry     beta= 0.50
     Davidson diagonalization with overlap
     ethr =  8.71E-08,  avg # of iterations =  2.7

     total cpu time spent up to now is       24.9 secs

     total energy              =    -111.57978828 Ry
     estimated scf accuracy    <       0.00000319 Ry

     total magnetization       =     5.25 Bohr mag/cell
     absolute magnetization    =     5.47 Bohr mag/cell

     iteration #  7     ecut=    30.00 Ry     beta= 0.50
     Davidson diagonalization with overlap
     ethr =  1.99E-08,  avg # of iterations =  3.4

     total cpu time spent up to now is       25.7 secs

     total energy              =    -111.57978955 Ry
     estimated scf accuracy    <       0.00000061 Ry

     total magnetization       =     5.25 Bohr mag/cell
     absolute magnetization    =     5.46 Bohr mag/cell

     iteration #  8     ecut=    30.00 Ry     beta= 0.50
     Davidson diagonalization with overlap
     ethr =  3.79E-09,  avg # of iterations =  4.6

     total cpu time spent up to now is       26.7 secs

     total energy              =    -111.57978998 Ry
     estimated scf accuracy    <          5.3E-09 Ry

     total magnetization       =     5.25 Bohr mag/cell
     absolute magnetization    =     5.46 Bohr mag/cell

     iteration #  9     ecut=    30.00 Ry     beta= 0.50
     Davidson diagonalization with overlap
     ethr =  3.30E-11,  avg # of iterations =  9.8

     total cpu time spent up to now is       28.9 secs

     total energy              =    -111.57979004 Ry
     estimated scf accuracy    <          1.1E-09 Ry

     total magnetization       =     5.25 Bohr mag/cell
     absolute magnetization    =     5.46 Bohr mag/cell

     iteration # 10     ecut=    30.00 Ry     beta= 0.50
     Davidson diagonalization with overlap
     ethr =  6.83E-12,  avg # of iterations =  3.8

     Magnetic moment per site  (integrated on atomic sphere of radius R)
     atom   1 (R=0.386)  charge=  6.5888  magn=  2.6636
     atom   2 (R=0.386)  charge=  6.5883  magn=  2.6636

     total cpu time spent up to now is       29.8 secs

     End of self-consistent calculation

     Number of k-points >= 100: set verbosity='high' to print the bands.

     the Fermi energy is    13.2917 ev

!    total energy              =    -111.57979004 Ry
     estimated scf accuracy    <          2.4E-10 Ry
     smearing contrib. (-TS)   =       0.00000495 Ry
     internal energy E=F+TS    =    -111.57979500 Ry

     The total energy is F=E-TS. E is the sum of the following terms:
     one-electron contribution =      13.87578119 Ry
     hartree contribution      =      13.49362665 Ry
     xc contribution           =     -52.95905709 Ry
     ewald contribution        =     -85.99014575 Ry

     total magnetization       =     5.25 Bohr mag/cell
     absolute magnetization    =     5.46 Bohr mag/cell

     convergence has been achieved in  10 iterations

     Forces acting on atoms (cartesian axes, Ry/au):

     atom    1 type  1   force =     0.00000000   -0.00000134    0.00000000
     atom    2 type  1   force =     0.00000000    0.00000134   -0.00000000

     Total force =     0.000002     Total SCF correction =     0.000000


     Computing stress (Cartesian axis) and pressure

          total   stress  (Ry/bohr**3)                   (kbar)     P=       61.79
   0.00029600   0.00000000   0.00000000           43.54        0.00        0.00
   0.00000000   0.00029594  -0.00000000            0.00       43.53       -0.00
   0.00000000  -0.00000000   0.00066819            0.00       -0.00       98.29

     Energy error            =      3.8E-03 Ry
     Gradient error          =      1.3E-06 Ry/Bohr
     Cell gradient error     =      9.8E+01 kbar

     number of scf cycles    =   3
     number of bfgs steps    =   2

     enthalpy           old  =    -111.5759503235 Ry
     enthalpy           new  =    -111.5797900438 Ry

     CASE: enthalpy          _new < enthalpy          _old

     new trust radius        =       0.0233813922 bohr
     new conv_thr            =       0.0000000010 Ry

     new unit-cell volume =    162.32432 a.u.^3 (    24.05398 Ang^3 )
     density =      7.71039 g/cm^3

CELL_PARAMETERS (angstrom)
   2.544390874   0.000000000   0.000000000
  -1.272195437   2.203494783   0.000000000
   0.000000000   0.000000000   4.290334236

ATOMIC_POSITIONS (angstrom)
Fe               0.0000000000       -0.0000025566       -0.0000000000
Fe               0.0000000000        1.4690031058        2.1451671178


     Message from routine punch:
     Nothing written, as per user request (disk_io='none')
     NEW-OLD atomic charge density approx. for the potential
     New effective cutoffs (rho, wfc):  337.58   33.76

     Check: negative core charge=   -0.000003
     Generating pointlists ...

     total cpu time spent up to now is       30.4 secs

     Self-consistent Calculation

     iteration #  1     ecut=    30.00 Ry     beta= 0.50
     Davidson diagonalization with overlap
     ethr =  1.00E-06,  avg # of iterations =  4.1

     total cpu time spent up to now is       31.6 secs

     total energy              =    -111.58086791 Ry
     estimated scf accuracy    <       0.00006773 Ry

     total magnetization       =     5.28 Bohr mag/cell
     absolute magnetization    =     5.50 Bohr mag/cell

     iteration #  2     ecut=    30.00 Ry     beta= 0.50
     Davidson diagonalization with overlap
     ethr =  4.23E-07,  avg # of iterations =  2.0

     total cpu time spent up to now is       32.4 secs

     total energy              =    -111.58088670 Ry
     estimated scf accuracy    <       0.00002877 Ry

     total magnetization       =     5.29 Bohr mag/cell
     absolute magnetization    =     5.51 Bohr mag/cell

     iteration #  3     ecut=    30.00 Ry     beta= 0.50
     Davidson diagonalization with overlap
     ethr =  1.80E-07,  avg # of iterations =  1.5

     total cpu time spent up to now is       33.1 secs

     total energy              =    -111.58088161 Ry
     estimated scf accuracy    <       0.00008749 Ry

     total magnetization       =     5.29 Bohr mag/cell
     absolute magnetization    =     5.51 Bohr mag/cell

     iteration #  4     ecut=    30.00 Ry     beta= 0.50
     Davidson diagonalization with overlap
     ethr =  1.80E-07,  avg # of iterations =  1.3

     total cpu time spent up to now is       33.8 secs

     total energy              =    -111.58089471 Ry
     estimated scf accuracy    <       0.00007082 Ry

     total magnetization       =     5.29 Bohr mag/cell
     absolute magnetization    =     5.51 Bohr mag/cell

     iteration #  5     ecut=    30.00 Ry     beta= 0.50
     Davidson diagonalization with overlap
     ethr =  1.80E-07,  avg # of iterations =  1.1

     total cpu time spent up to now is       34.4 secs

     total energy              =    -111.58090061 Ry
     estimated scf accuracy    <       0.00000084 Ry

     total magnetization       =     5.30 Bohr mag/cell
     absolute magnetization    =     5.52 Bohr mag/cell

     iteration #  6     ecut=    30.00 Ry     beta= 0.50
     Davidson diagonalization with overlap
     ethr =  5.24E-09,  avg # of iterations =  3.3

     total cpu time spent up to now is       35.4 secs

     total energy              =    -111.58090124 Ry
     estimated scf accuracy    <       0.00000097 Ry

     total magnetization       =     5.30 Bohr mag/cell
     absolute magnetization    =     5.52 Bohr mag/cell

     iteration #  7     ecut=    30.00 Ry     beta= 0.50
     Davidson diagonalization with overlap
     ethr =  5.24E-09,  avg # of iterations =  1.4

     total cpu time spent up to now is       36.1 secs

     total energy              =    -111.58090132 Ry
     estimated scf accuracy    <       0.00000009 Ry

     total magnetization       =     5.30 Bohr mag/cell
     absolute magnetization    =     5.52 Bohr mag/cell

     iteration #  8     ecut=    30.00 Ry     beta= 0.50
     Davidson diagonalization with overlap
     ethr =  5.62E-10,  avg # of iterations =  4.0

     total cpu time spent up to now is       37.1 secs

     total energy              =    -111.58090136 Ry
     estimated scf accuracy    <          2.4E-09 Ry

     total magnetization       =     5.30 Bohr mag/cell
     absolute magnetization    =     5.52 Bohr mag/cell

     iteration #  9     ecut=    30.00 Ry     beta= 0.50
     Davidson diagonalization with overlap
     ethr =  1.53E-11,  avg # of iterations =  8.1

     Magnetic moment per site  (integrated on atomic sphere of radius R)
     atom   1 (R=0.386)  charge=  6.5609  magn=  2.6893
     atom   2 (R=0.386)  charge=  6.5615  magn=  2.6893

     total cpu time spent up to now is       38.9 secs

     End of self-consistent calculation

     Number of k-points >= 100: set verbosity='high' to print the bands.

     the Fermi energy is    12.9550 ev

!    total energy              =    -111.58090137 Ry
     estimated scf accuracy    <          2.7E-10 Ry
     smearing contrib. (-TS)   =      -0.00028457 Ry
     internal energy E=F+TS    =    -111.58061679 Ry

     The total energy is F=E-TS. E is the sum of the following terms:
     one-electron contribution =      13.00515898 Ry
     hartree contribution      =      13.72165624 Ry
     xc contribution           =     -52.93405104 Ry
     ewald contribution        =     -85.37338098 Ry

     total magnetization       =     5.30 Bohr mag/cell
     absolute magnetization    =     5.52 Bohr mag/cell

     convergence has been achieved in   9 iterations

     Forces acting on atoms (cartesian axes, Ry/au):

     atom    1 type  1   force =     0.00000000   -0.00000139    0.00000000
     atom    2 type  1   force =     0.00000000    0.00000139   -0.00000000

     Total force =     0.000002     Total SCF correction =     0.000000


     Computing stress (Cartesian axis) and pressure

          total   stress  (Ry/bohr**3)                   (kbar)     P=       23.71
   0.00004271   0.00000000   0.00000000            6.28        0.00        0.00
   0.00000000   0.00004265  -0.00000000            0.00        6.27       -0.00
   0.00000000  -0.00000000   0.00039825            0.00       -0.00       58.58

     Energy error            =      1.1E-03 Ry
     Gradient error          =      1.4E-06 Ry/Bohr
     Cell gradient error     =      5.9E+01 kbar

     number of scf cycles    =   4
     number of bfgs steps    =   3

     enthalpy           old  =    -111.5797900438 Ry
     enthalpy           new  =    -111.5809013657 Ry

     CASE: enthalpy          _new < enthalpy          _old

     new trust radius        =       0.0515175859 bohr
     new conv_thr            =       0.0000000010 Ry

     new unit-cell volume =    164.82713 a.u.^3 (    24.42486 Ang^3 )
     density =      7.59331 g/cm^3

CELL_PARAMETERS (angstrom)
   2.538404262   0.000000000   0.000000000
  -1.269202131   2.198301704  -0.000000000
   0.000000000  -0.000000000   4.377075319

ATOMIC_POSITIONS (angstrom)
Fe               0.0000000000       -0.0000041271        0.0000000000
Fe               0.0000000000        1.4655426136        2.1885376596


     Message from routine punch:
     Nothing written, as per user request (disk_io='none')
     NEW-OLD atomic charge density approx. for the potential
     New effective cutoffs (rho, wfc):  339.15   33.92

     Check: negative core charge=   -0.000003
     Generating pointlists ...

     total cpu time spent up to now is       39.6 secs

     Self-consistent Calculation

     iteration #  1     ecut=    30.00 Ry     beta= 0.50
     Davidson diagonalization with overlap
     ethr =  1.00E-06,  avg # of iterations =  5.8

     total cpu time spent up to now is       41.1 secs

     total energy              =    -111.58155572 Ry
     estimated scf accuracy    <       0.00013210 Ry

     total magnetization       =     5.33 Bohr mag/cell
     absolute magnetization    =     5.55 Bohr mag/cell

     iteration #  2     ecut=    30.00 Ry     beta= 0.50
     Davidson diagonalization with overlap
     ethr =  8.26E-07,  avg # of iterations =  1.0

     total cpu time spent up to now is       41.8 secs

     total energy              =    -111.58158924 Ry
     estimated scf accuracy    <       0.00004068 Ry

     total magnetization       =     5.34 Bohr mag/cell
     absolute magnetization    =     5.56 Bohr mag/cell

     iteration #  3     ecut=    30.00 Ry     beta= 0.50
     Davidson diagonalization with overlap
     ethr =  2.54E-07,  avg # of iterations =  2.0

     total cpu time spent up to now is       42.5 secs

     total energy              =    -111.58158000 Ry
     estimated scf accuracy    <       0.00030716 Ry

     total magnetization       =     5.35 Bohr mag/cell
     absolute magnetization    =     5.57 Bohr mag/cell

     iteration #  4     ecut=    30.00 Ry     beta= 0.50
     Davidson diagonalization with overlap
     ethr =  2.54E-07,  avg # of iterations =  1.1

     total cpu time spent up to now is       43.2 secs

     total energy              =    -111.58160247 Ry
     estimated scf accuracy    <       0.00000820 Ry

     total magnetization       =     5.35 Bohr mag/cell
     absolute magnetization    =     5.57 Bohr mag/cell

     iteration #  5     ecut=    30.00 Ry     beta= 0.50
     Davidson diagonalization with overlap
     ethr =  5.13E-08,  avg # of iterations =  1.9

     total cpu time spent up to now is       44.1 secs

     total energy              =    -111.58160432 Ry
     estimated scf accuracy    <       0.00000076 Ry

     total magnetization       =     5.35 Bohr mag/cell
     absolute magnetization    =     5.57 Bohr mag/cell

     iteration #  6     ecut=    30.00 Ry     beta= 0.50
     Davidson diagonalization with overlap
     ethr =  4.77E-09,  avg # of iterations =  3.8

     total cpu time spent up to now is       45.0 secs

     total energy              =    -111.58160479 Ry
     estimated scf accuracy    <       0.00000011 Ry

     total magnetization       =     5.35 Bohr mag/cell
     absolute magnetization    =     5.57 Bohr mag/cell

     iteration #  7     ecut=    30.00 Ry     beta= 0.50
     Davidson diagonalization with overlap
     ethr =  7.03E-10,  avg # of iterations =  4.9

     total cpu time spent up to now is       46.1 secs

     total energy              =    -111.58160491 Ry
     estimated scf accuracy    <       0.00000007 Ry

     total magnetization       =     5.35 Bohr mag/cell
     absolute magnetization    =     5.57 Bohr mag/cell

     iteration #  8     ecut=    30.00 Ry     beta= 0.50
     Davidson diagonalization with overlap
     ethr =  4.61E-10,  avg # of iterations =  1.6

     Magnetic moment per site  (integrated on atomic sphere of radius R)
     atom   1 (R=0.386)  charge=  6.5449  magn=  2.7148
     atom   2 (R=0.386)  charge=  6.5456  magn=  2.7149

     total cpu time spent up to now is       46.8 secs

     End of self-consistent calculation

     Number of k-points >= 100: set verbosity='high' to print the bands.

     the Fermi energy is    12.7047 ev

!    total energy              =    -111.58160492 Ry
     estimated scf accuracy    <          6.7E-10 Ry
     smearing contrib. (-TS)   =      -0.00039672 Ry
     internal energy E=F+TS    =    -111.58120821 Ry

     The total energy is F=E-TS. E is the sum of the following terms:
     one-electron contribution =      12.34780394 Ry
     hartree contribution      =      13.90817041 Ry
     xc contribution           =     -52.92216921 Ry
     ewald contribution        =     -84.91501335 Ry

     total magnetization       =     5.35 Bohr mag/cell
     absolute magnetization    =     5.57 Bohr mag/cell

     convergence has been achieved in   8 iterations

     Forces acting on atoms (cartesian axes, Ry/au):

     atom    1 type  1   force =     0.00000000   -0.00000179   -0.00000000
     atom    2 type  1   force =     0.00000000    0.00000179    0.00000000

     Total force =     0.000003     Total SCF correction =     0.000000


     Computing stress (Cartesian axis) and pressure

          total   stress  (Ry/bohr**3)                   (kbar)     P=        2.86
   0.00000912   0.00000000   0.00000000            1.34        0.00        0.00
   0.00000000   0.00000905  -0.00000000            0.00        1.33       -0.00
   0.00000000   0.00000000   0.00004014            0.00        0.00        5.90

     Energy error            =      7.0E-04 Ry
     Gradient error          =      1.8E-06 Ry/Bohr
     Cell gradient error     =      5.9E+00 kbar

     number of scf cycles    =   5
     number of bfgs steps    =   4

     enthalpy           old  =    -111.5809013657 Ry
     enthalpy           new  =    -111.5816049247 Ry

     CASE: enthalpy          _new < enthalpy          _old

     new trust radius        =       0.0054005701 bohr
     new conv_thr            =       0.0000000010 Ry

     new unit-cell volume =    165.15038 a.u.^3 (    24.47276 Ang^3 )
     density =      7.57845 g/cm^3

CELL_PARAMETERS (angstrom)
   2.538227156   0.000000000   0.000000000
  -1.269113578   2.198143310  -0.000000000
   0.000000000  -0.000000000   4.386281495

ATOMIC_POSITIONS (angstrom)
Fe               0.0000000000       -0.0000051520        0.0000000000
Fe               0.0000000000        1.4654380424        2.1931407477


     Message from routine punch:
     Nothing written, as per user request (disk_io='none')
     NEW-OLD atomic charge density approx. for the potential
     New effective cutoffs (rho, wfc):  339.19   33.93

     Check: negative core charge=   -0.000003
     Generating pointlists ...

     total cpu time spent up to now is       47.4 secs

     Self-consistent Calculation

     iteration #  1     ecut=    30.00 Ry     beta= 0.50
     Davidson diagonalization with overlap
     ethr =  1.00E-06,  avg # of iterations =  2.5

     Threshold (ethr) on eigenvalues was too large:
     Diagonalizing with lowered threshold

     Davidson diagonalization with overlap
     ethr =  8.40E-09,  avg # of iterations =  3.7

     total cpu time spent up to now is       49.3 secs

     total energy              =    -111.58161155 Ry
     estimated scf accuracy    <       0.00000132 Ry

     total magnetization       =     5.36 Bohr mag/cell
     absolute magnetization    =     5.57 Bohr mag/cell

     iteration #  2     ecut=    30.00 Ry     beta= 0.50
     Davidson diagonalization with overlap
     ethr =  8.22E-09,  avg # of iterations =  1.0

     total cpu time spent up to now is       50.0 secs

     total energy              =    -111.58161174 Ry
     estimated scf accuracy    <       0.00000056 Ry

     total magnetization       =     5.36 Bohr mag/cell
     absolute magnetization    =     5.58 Bohr mag/cell

     iteration #  3     ecut=    30.00 Ry     beta= 0.50
     Davidson diagonalization with overlap
     ethr =  3.51E-09,  avg # of iterations =  2.5

     total cpu time spent up to now is       50.8 secs

     total energy              =    -111.58161125 Ry
     estimated scf accuracy    <       0.00001371 Ry

     total magnetization       =     5.36 Bohr mag/cell
     absolute magnetization    =     5.58 Bohr mag/cell

     iteration #  4     ecut=    30.00 Ry     beta= 0.50
     Davidson diagonalization with overlap
     ethr =  3.51E-09,  avg # of iterations =  2.0

     total cpu time spent up to now is       51.5 secs

     total energy              =    -111.58161201 Ry
     estimated scf accuracy    <       0.00000003 Ry

     total magnetization       =     5.36 Bohr mag/cell
     absolute magnetization    =     5.58 Bohr mag/cell

     iteration #  5     ecut=    30.00 Ry     beta= 0.50
     Davidson diagonalization with overlap
     ethr =  1.90E-10,  avg # of iterations =  3.5

     total cpu time spent up to now is       52.4 secs

     total energy              =    -111.58161204 Ry
     estimated scf accuracy    <       0.00000002 Ry

     total magnetization       =     5.36 Bohr mag/cell
     absolute magnetization    =     5.58 Bohr mag/cell

     iteration #  6     ecut=    30.00 Ry     beta= 0.50
     Davidson diagonalization with overlap
     ethr =  1.31E-10,  avg # of iterations =  1.2

     total cpu time spent up to now is       53.1 secs

     total energy              =    -111.58161204 Ry
     estimated scf accuracy    <          1.1E-09 Ry

     total magnetization       =     5.36 Bohr mag/cell
     absolute magnetization    =     5.58 Bohr mag/cell

     iteration #  7     ecut=    30.00 Ry     beta= 0.50
     Davidson diagonalization with overlap
     ethr =  6.87E-12,  avg # of iterations =  5.8

     total cpu time spent up to now is       54.4 secs

     total energy              =    -111.58161204 Ry
     estimated scf accuracy    <          2.0E-09 Ry

     total magnetization       =     5.36 Bohr mag/cell
     absolute magnetization    =     5.58 Bohr mag/cell

     iteration #  8     ecut=    30.00 Ry     beta= 0.50
     Davidson diagonalization with overlap
     ethr =  6.87E-12,  avg # of iterations =  1.2

     Magnetic moment per site  (integrated on atomic sphere of radius R)
     atom   1 (R=0.386)  charge=  6.5429  magn=  2.7177
     atom   2 (R=0.386)  charge=  6.5435  magn=  2.7177

     total cpu time spent up to now is       55.4 secs

     End of self-consistent calculation

     Number of k-points >= 100: set verbosity='high' to print the bands.

     the Fermi energy is    12.6734 ev

!    total energy              =    -111.58161204 Ry
     estimated scf accuracy    <          1.9E-11 Ry
     smearing contrib. (-TS)   =      -0.00041211 Ry
     internal energy E=F+TS    =    -111.58119993 Ry

     The total energy is F=E-TS. E is the sum of the following terms:
     one-electron contribution =      12.26378152 Ry
     hartree contribution      =      13.93204182 Ry
     xc contribution           =     -52.92052616 Ry
     ewald contribution        =     -84.85649711 Ry

     total magnetization       =     5.36 Bohr mag/cell
     absolute magnetization    =     5.58 Bohr mag/cell

     convergence has been achieved in   8 iterations

     Forces acting on atoms (cartesian axes, Ry/au):

     atom    1 type  1   force =     0.00000000   -0.00000228   -0.00000000
     atom    2 type  1   force =     0.00000000    0.00000228    0.00000000

     Total force =     0.000003     Total SCF correction =     0.000000


     Computing stress (Cartesian axis) and pressure

          total   stress  (Ry/bohr**3)                   (kbar)     P=        0.32
   0.00000271  -0.00000000  -0.00000000            0.40       -0.00       -0.00
  -0.00000000   0.00000263   0.00000000           -0.00        0.39        0.00
  -0.00000000   0.00000000   0.00000115           -0.00        0.00        0.17

     Energy error            =      7.1E-06 Ry
     Gradient error          =      2.3E-06 Ry/Bohr
     Cell gradient error     =      4.0E-01 kbar

     bfgs converged in   6 scf cycles and   5 bfgs steps
     (criteria: energy <  1.0E-04 Ry, force <  1.0E-03 Ry/Bohr, cell <  5.0E-01 kbar)

     End of BFGS Geometry Optimization

     Final enthalpy           =    -111.5816120402 Ry

     File /home/bond/Work/Lab4/1A/Fe_hcp_nk_8_relax/pwscf.bfgs deleted, as requested
Begin final coordinates
     new unit-cell volume =    165.15038 a.u.^3 (    24.47276 Ang^3 )
     density =      7.57845 g/cm^3

CELL_PARAMETERS (angstrom)
   2.538227156   0.000000000   0.000000000
  -1.269113578   2.198143310  -0.000000000
   0.000000000  -0.000000000   4.386281495

ATOMIC_POSITIONS (angstrom)
Fe               0.0000000000       -0.0000051520        0.0000000000
Fe               0.0000000000        1.4654380424        2.1931407477
End final coordinates


     Message from routine punch:
     Nothing written, as per user request (disk_io='none')

     Final scf calculation at the relaxed structure.
     The G-vectors are recalculated for the final unit cell
     Results may differ from those at the preceding step.

     Parallelization info
     --------------------
     sticks:   dense  smooth     PW     G-vecs:    dense   smooth      PW
     Min         237      99     30                 7237     1859     356
     Max         238     100     31                 7238     1860     357
     Sum         475     199     61                14475     3719     713

     Using Slab Decomposition



     bravais-lattice index     =            0
     lattice parameter (alat)  =       5.1023  a.u.
     unit-cell volume          =     165.1504 (a.u.)^3
     number of atoms/cell      =            2
     number of atomic types    =            1
     number of electrons       =        16.00
     number of Kohn-Sham states=           12
     kinetic-energy cutoff     =      30.0000  Ry
     charge density cutoff     =     300.0000  Ry
     scf convergence threshold =      1.0E-09
     mixing beta               =       0.5000
     number of iterations used =            8  plain     mixing
     press convergence thresh. =      5.0E-01
     Exchange-correlation=  SLA  PW   PBE  PBE
                           (   1   4   3   4   0   0   0)

     celldm(1)=   5.102261  celldm(2)=   0.000000  celldm(3)=   0.000000
     celldm(4)=   0.000000  celldm(5)=   0.000000  celldm(6)=   0.000000

     crystal axes: (cart. coord. in units of alat)
               a(1) = (   0.940084   0.000000   0.000000 )  
               a(2) = (  -0.470042   0.814127  -0.000000 )  
               a(3) = (   0.000000  -0.000000   1.624549 )  

     reciprocal axes: (cart. coord. in units 2 pi/alat)
               b(1) = (  1.063735  0.614155  0.000000 )  
               b(2) = ( -0.000000  1.228309  0.000000 )  
               b(3) = ( -0.000000  0.000000  0.615556 )  


     PseudoPot. # 1 for Fe read from file:
     /home/bond/Software/QE/qe-7.4.1/pseudo/Fe.pbe-nd-rrkjus.UPF
     MD5 check sum: 398036227a04b607635f6f5e8dfd8242
     Pseudo is Ultrasoft + core correction, Zval =  8.0
     Generated by new atomic code, or converted to UPF format
     Using radial grid of  957 points,  6 beta functions with: 
                l(1) =   0
                l(2) =   0
                l(3) =   1
                l(4) =   1
                l(5) =   2
                l(6) =   2
     Q(r) pseudized with 0 coefficients 


     atomic species   valence    mass     pseudopotential
     Fe                8.00    55.84500     Fe( 1.00)

     Starting magnetic structure 
     atomic species   magnetization
     Fe              0.415

      4 Sym. Ops. (no inversion) found



   Cartesian axes

     site n.     atom                  positions (alat units)
         1        Fe     tau(   1) = (   0.0000000  -0.0000019   0.0000000  )
         2        Fe     tau(   2) = (   0.0000000   0.5427548   0.8122744  )

     number of k points=    63  Methfessel-Paxton smearing, width (Ry)=  0.0200
                       cart. coord. in units 2pi/alat
        k(    1) = (   0.0000000   0.0000000   0.0000000), wk =   0.0039062
        k(    2) = (   0.0000000   0.0000000   0.1538889), wk =   0.0078125
        k(    3) = (   0.0000000  -0.0000000  -0.3077778), wk =   0.0039062
        k(    4) = (   0.0000000   0.1535387   0.0000000), wk =   0.0078125
        k(    5) = (   0.0000000   0.1535387   0.1538889), wk =   0.0156250
        k(    6) = (   0.0000000   0.1535387  -0.3077778), wk =   0.0078125
        k(    7) = (   0.0000000   0.3070773   0.0000000), wk =   0.0078125
        k(    8) = (   0.0000000   0.3070773   0.1538889), wk =   0.0156250
        k(    9) = (   0.0000000   0.3070773  -0.3077778), wk =   0.0078125
        k(   10) = (   0.0000000   0.4606160   0.0000000), wk =   0.0078125
        k(   11) = (   0.0000000   0.4606160   0.1538889), wk =   0.0156250
        k(   12) = (   0.0000000   0.4606160  -0.3077778), wk =   0.0078125
        k(   13) = (   0.0000000  -0.6141547  -0.0000000), wk =   0.0039062
        k(   14) = (   0.0000000  -0.6141547   0.1538889), wk =   0.0078125
        k(   15) = (   0.0000000  -0.6141547  -0.3077778), wk =   0.0039062
        k(   16) = (   0.1329668   0.2303080   0.0000000), wk =   0.0156250
        k(   17) = (   0.1329668   0.2303080   0.1538889), wk =   0.0312500
        k(   18) = (   0.1329668   0.2303080  -0.3077778), wk =   0.0156250
        k(   19) = (   0.1329668   0.3838467   0.0000000), wk =   0.0156250
        k(   20) = (   0.1329668   0.3838467   0.1538889), wk =   0.0312500
        k(   21) = (   0.1329668   0.3838467  -0.3077778), wk =   0.0156250
        k(   22) = (   0.1329668   0.5373853   0.0000000), wk =   0.0156250
        k(   23) = (   0.1329668   0.5373853   0.1538889), wk =   0.0312500
        k(   24) = (   0.1329668   0.5373853  -0.3077778), wk =   0.0156250
        k(   25) = (   0.2659336   0.4606160   0.0000000), wk =   0.0156250
        k(   26) = (   0.2659336   0.4606160   0.1538889), wk =   0.0312500
        k(   27) = (   0.2659336   0.4606160  -0.3077778), wk =   0.0156250
        k(   28) = (   0.2659336   0.6141547   0.0000000), wk =   0.0078125
        k(   29) = (   0.2659336   0.6141547   0.1538889), wk =   0.0156250
        k(   30) = (   0.2659336   0.6141547  -0.3077778), wk =   0.0078125
        k(   31) = (   0.1329668  -0.0767693  -0.0000000), wk =   0.0156250
        k(   32) = (   0.1329668  -0.0767693   0.1538889), wk =   0.0312500
        k(   33) = (   0.1329668  -0.0767693  -0.3077778), wk =   0.0156250
        k(   34) = (   0.2659336  -0.1535387  -0.0000000), wk =   0.0156250
        k(   35) = (   0.2659336  -0.1535387   0.1538889), wk =   0.0312500
        k(   36) = (   0.2659336  -0.1535387  -0.3077778), wk =   0.0156250
        k(   37) = (   0.3989005  -0.2303080  -0.0000000), wk =   0.0156250
        k(   38) = (   0.3989005  -0.2303080   0.1538889), wk =   0.0312500
        k(   39) = (   0.3989005  -0.2303080  -0.3077778), wk =   0.0156250
        k(   40) = (  -0.5318673   0.3070773   0.0000000), wk =   0.0078125
        k(   41) = (  -0.5318673   0.3070773   0.1538889), wk =   0.0156250
        k(   42) = (  -0.5318673   0.3070773  -0.3077778), wk =   0.0078125
        k(   43) = (   0.2659336   0.0000000   0.0000000), wk =   0.0078125
        k(   44) = (   0.2659336  -0.0000000  -0.1538889), wk =   0.0156250
        k(   45) = (   0.2659336   0.0000000   0.3077778), wk =   0.0078125
        k(   46) = (   0.2659336  -0.3070773  -0.0000000), wk =   0.0156250
        k(   47) = (   0.3989005  -0.0767693  -0.0000000), wk =   0.0156250
        k(   48) = (   0.2659336  -0.3070773   0.1538889), wk =   0.0312500
        k(   49) = (   0.3989005  -0.0767693  -0.1538889), wk =   0.0312500
        k(   50) = (   0.2659336  -0.3070773  -0.3077778), wk =   0.0156250
        k(   51) = (   0.3989005  -0.0767693   0.3077778), wk =   0.0156250
        k(   52) = (   0.3989005  -0.3838467  -0.0000000), wk =   0.0156250
        k(   53) = (   0.5318673  -0.1535387  -0.0000000), wk =   0.0156250
        k(   54) = (   0.3989005  -0.3838467   0.1538889), wk =   0.0312500
        k(   55) = (   0.5318673  -0.1535387  -0.1538889), wk =   0.0312500
        k(   56) = (   0.3989005  -0.3838467  -0.3077778), wk =   0.0156250
        k(   57) = (   0.5318673  -0.1535387   0.3077778), wk =   0.0156250
        k(   58) = (   0.5318673   0.0000000   0.0000000), wk =   0.0078125
        k(   59) = (   0.5318673  -0.0000000  -0.1538889), wk =   0.0156250
        k(   60) = (   0.5318673   0.0000000   0.3077778), wk =   0.0078125
        k(   61) = (   0.3989005  -0.5373853  -0.0000000), wk =   0.0156250
        k(   62) = (   0.3989005  -0.5373853   0.1538889), wk =   0.0312500
        k(   63) = (   0.3989005  -0.5373853  -0.3077778), wk =   0.0156250

     Dense  grid:    14475 G-vectors     FFT dimensions: (  27,  27,  45)

     Smooth grid:     3719 G-vectors     FFT dimensions: (  18,  18,  30)

     Estimated max dynamical RAM per process >      37.62 MB

     Estimated total dynamical RAM >      75.24 MB

     Check: negative core charge=   -0.000006
     Generating pointlists ...

     Initial potential from superposition of free atoms

     starting charge      15.9987, renormalised to      16.0000
     Starting wfcs are   12 randomized atomic wfcs

     total cpu time spent up to now is       56.4 secs

     Self-consistent Calculation

     iteration #  1     ecut=    30.00 Ry     beta= 0.50
     Davidson diagonalization with overlap
     c_bands:  1 eigenvalues not converged
     c_bands:  1 eigenvalues not converged
     c_bands:  1 eigenvalues not converged
     c_bands:  1 eigenvalues not converged
     c_bands:  1 eigenvalues not converged
     c_bands:  1 eigenvalues not converged
     c_bands:  1 eigenvalues not converged
     c_bands:  1 eigenvalues not converged
     c_bands:  1 eigenvalues not converged
     c_bands:  1 eigenvalues not converged
     c_bands:  1 eigenvalues not converged
     c_bands:  1 eigenvalues not converged
     c_bands:  1 eigenvalues not converged
     c_bands:  1 eigenvalues not converged
     c_bands:  1 eigenvalues not converged
     c_bands:  1 eigenvalues not converged
     ethr =  1.00E-06,  avg # of iterations = 15.4

     total cpu time spent up to now is       59.3 secs

     total energy              =    -111.31085219 Ry
     estimated scf accuracy    <       0.70254404 Ry

     total magnetization       =     5.09 Bohr mag/cell
     absolute magnetization    =     5.09 Bohr mag/cell

     iteration #  2     ecut=    30.00 Ry     beta= 0.50
     Davidson diagonalization with overlap
     ethr =  4.39E-03,  avg # of iterations =  2.4

     total cpu time spent up to now is       60.0 secs

     total energy              =    -111.55002042 Ry
     estimated scf accuracy    <       0.15429574 Ry

     total magnetization       =     5.27 Bohr mag/cell
     absolute magnetization    =     5.29 Bohr mag/cell

     iteration #  3     ecut=    30.00 Ry     beta= 0.50
     Davidson diagonalization with overlap
     ethr =  9.64E-04,  avg # of iterations =  1.5

     total cpu time spent up to now is       60.6 secs

     total energy              =    -111.57290972 Ry
     estimated scf accuracy    <       0.01005781 Ry

     total magnetization       =     5.35 Bohr mag/cell
     absolute magnetization    =     5.39 Bohr mag/cell

     iteration #  4     ecut=    30.00 Ry     beta= 0.50
     Davidson diagonalization with overlap
     ethr =  6.29E-05,  avg # of iterations =  3.2

     total cpu time spent up to now is       61.4 secs

     total energy              =    -111.57924766 Ry
     estimated scf accuracy    <       0.00910726 Ry

     total magnetization       =     5.36 Bohr mag/cell
     absolute magnetization    =     5.49 Bohr mag/cell

     iteration #  5     ecut=    30.00 Ry     beta= 0.50
     Davidson diagonalization with overlap
     ethr =  5.69E-05,  avg # of iterations =  1.4

     total cpu time spent up to now is       62.0 secs

     total energy              =    -111.57809543 Ry
     estimated scf accuracy    <       0.03381366 Ry

     total magnetization       =     5.35 Bohr mag/cell
     absolute magnetization    =     5.51 Bohr mag/cell

     iteration #  6     ecut=    30.00 Ry     beta= 0.50
     Davidson diagonalization with overlap
     ethr =  5.69E-05,  avg # of iterations =  2.2

     total cpu time spent up to now is       62.7 secs

     total energy              =    -111.58088566 Ry
     estimated scf accuracy    <       0.00429315 Ry

     total magnetization       =     5.34 Bohr mag/cell
     absolute magnetization    =     5.55 Bohr mag/cell

     iteration #  7     ecut=    30.00 Ry     beta= 0.50
     Davidson diagonalization with overlap
     ethr =  2.68E-05,  avg # of iterations =  1.4

     total cpu time spent up to now is       63.4 secs

     total energy              =    -111.58105694 Ry
     estimated scf accuracy    <       0.00050416 Ry

     total magnetization       =     5.35 Bohr mag/cell
     absolute magnetization    =     5.56 Bohr mag/cell

     iteration #  8     ecut=    30.00 Ry     beta= 0.50
     Davidson diagonalization with overlap
     ethr =  3.15E-06,  avg # of iterations =  2.6

     total cpu time spent up to now is       64.1 secs

     total energy              =    -111.58120362 Ry
     estimated scf accuracy    <       0.00000542 Ry

     total magnetization       =     5.36 Bohr mag/cell
     absolute magnetization    =     5.57 Bohr mag/cell

     iteration #  9     ecut=    30.00 Ry     beta= 0.50
     Davidson diagonalization with overlap
     ethr =  3.39E-08,  avg # of iterations =  7.2

     total cpu time spent up to now is       65.6 secs

     total energy              =    -111.58121822 Ry
     estimated scf accuracy    <       0.00000885 Ry

     total magnetization       =     5.36 Bohr mag/cell
     absolute magnetization    =     5.57 Bohr mag/cell

     iteration # 10     ecut=    30.00 Ry     beta= 0.50
     Davidson diagonalization with overlap
     ethr =  3.39E-08,  avg # of iterations =  2.2

     total cpu time spent up to now is       66.6 secs

     total energy              =    -111.58121984 Ry
     estimated scf accuracy    <       0.00000036 Ry

     total magnetization       =     5.36 Bohr mag/cell
     absolute magnetization    =     5.58 Bohr mag/cell

     iteration # 11     ecut=    30.00 Ry     beta= 0.50
     Davidson diagonalization with overlap
     ethr =  2.23E-09,  avg # of iterations =  5.8

     total cpu time spent up to now is       68.0 secs

     total energy              =    -111.58121932 Ry
     estimated scf accuracy    <       0.00000307 Ry

     total magnetization       =     5.36 Bohr mag/cell
     absolute magnetization    =     5.58 Bohr mag/cell

     iteration # 12     ecut=    30.00 Ry     beta= 0.50
     Davidson diagonalization with overlap
     ethr =  2.23E-09,  avg # of iterations =  4.2

     total cpu time spent up to now is       69.1 secs

     total energy              =    -111.58122021 Ry
     estimated scf accuracy    <       0.00000039 Ry

     total magnetization       =     5.36 Bohr mag/cell
     absolute magnetization    =     5.58 Bohr mag/cell

     iteration # 13     ecut=    30.00 Ry     beta= 0.50
     Davidson diagonalization with overlap
     ethr =  2.23E-09,  avg # of iterations =  1.8

     total cpu time spent up to now is       69.8 secs

     total energy              =    -111.58122026 Ry
     estimated scf accuracy    <       0.00000002 Ry

     total magnetization       =     5.36 Bohr mag/cell
     absolute magnetization    =     5.58 Bohr mag/cell

     iteration # 14     ecut=    30.00 Ry     beta= 0.50
     Davidson diagonalization with overlap
     ethr =  1.19E-10,  avg # of iterations =  4.1

     Magnetic moment per site  (integrated on atomic sphere of radius R)
     atom   1 (R=0.386)  charge=  6.5428  magn=  2.7177
     atom   2 (R=0.386)  charge=  6.5435  magn=  2.7179

     total cpu time spent up to now is       70.8 secs

     End of self-consistent calculation

     Number of k-points >= 100: set verbosity='high' to print the bands.

     the Fermi energy is    12.6747 ev

!    total energy              =    -111.58122027 Ry
     estimated scf accuracy    <          2.3E-10 Ry
     smearing contrib. (-TS)   =      -0.00041439 Ry
     internal energy E=F+TS    =    -111.58080588 Ry

     The total energy is F=E-TS. E is the sum of the following terms:
     one-electron contribution =      12.26453732 Ry
     hartree contribution      =      13.93272563 Ry
     xc contribution           =     -52.92157172 Ry
     ewald contribution        =     -84.85649711 Ry

     total magnetization       =     5.36 Bohr mag/cell
     absolute magnetization    =     5.58 Bohr mag/cell

     convergence has been achieved in  14 iterations

     Forces acting on atoms (cartesian axes, Ry/au):

     atom    1 type  1   force =     0.00000000   -0.00000243   -0.00000000
     atom    2 type  1   force =     0.00000000    0.00000243    0.00000000

     Total force =     0.000003     Total SCF correction =     0.000000


     Computing stress (Cartesian axis) and pressure

          total   stress  (Ry/bohr**3)                   (kbar)     P=       -0.55
  -0.00000835   0.00000000   0.00000000           -1.23        0.00        0.00
   0.00000000  -0.00000843  -0.00000000            0.00       -1.24       -0.00
   0.00000000  -0.00000000   0.00000555            0.00       -0.00        0.82

     Message from routine punch:
     Nothing written, as per user request (disk_io='none')

     init_run     :      1.15s CPU      1.25s WALL (       2 calls)
     electrons    :     58.45s CPU     65.92s WALL (       7 calls)
     update_pot   :      0.10s CPU      0.10s WALL (       5 calls)
     forces       :      0.64s CPU      0.66s WALL (       7 calls)
     stress       :      3.25s CPU      3.33s WALL (       7 calls)

     Called by init_run:
     wfcinit      :      0.52s CPU      0.59s WALL (       2 calls)
     potinit      :      0.15s CPU      0.17s WALL (       2 calls)
     hinit0       :      0.40s CPU      0.40s WALL (       2 calls)

     Called by electrons:
     c_bands      :     46.68s CPU     53.03s WALL (      69 calls)
     sum_band     :      8.99s CPU     10.03s WALL (      69 calls)
     v_of_rho     :      1.19s CPU      1.22s WALL (      75 calls)
     newd         :      1.71s CPU      1.73s WALL (      75 calls)
     mix_rho      :      0.08s CPU      0.09s WALL (      69 calls)

     Called by c_bands:
     init_us_2    :      1.10s CPU      1.25s WALL (   19404 calls)
     cegterg      :     43.59s CPU     49.53s WALL (    8694 calls)

     Called by *egterg:
     cdiaghg      :      4.09s CPU      4.62s WALL (   35800 calls)
     h_psi        :     35.27s CPU     40.12s WALL (   36808 calls)
     s_psi        :      0.71s CPU      0.81s WALL (   36808 calls)
     g_psi        :      0.21s CPU      0.25s WALL (   27862 calls)

     Called by h_psi:
     h_psi:calbec :      1.30s CPU      1.48s WALL (   36808 calls)
     vloc_psi     :     32.96s CPU     37.49s WALL (   36808 calls)
     add_vuspsi   :      0.75s CPU      0.87s WALL (   36808 calls)

     General routines
     calbec       :      2.17s CPU      2.43s WALL (   60496 calls)
     fft          :      0.65s CPU      0.69s WALL (    2148 calls)
     ffts         :      0.13s CPU      0.13s WALL (     288 calls)
     fftw         :     33.45s CPU     38.15s WALL (  741242 calls)
     interpolate  :      0.16s CPU      0.16s WALL (     150 calls)

     Parallel routines

     PWSCF        :   1m 3.86s CPU   1m11.54s WALL


   This run was terminated on:  17:55:32  20Oct2025            

=------------------------------------------------------------------------------=
   JOB DONE.
=------------------------------------------------------------------------------=
