
     Program PWSCF v.7.4.1 starts on 21Oct2025 at 12:33:43 

     This program is part of the open-source Quantum ESPRESSO suite
     for quantum simulation of materials; please cite
         "P. Giannozzi et al., J. Phys.:Condens. Matter 21 395502 (2009);
         "P. Giannozzi et al., J. Phys.:Condens. Matter 29 465901 (2017);
         "P. Giannozzi et al., J. Chem. Phys. 152 154105 (2020);
          URL http://www.quantum-espresso.org", 
     in publications or presentations arising from this work. More details at
     http://www.quantum-espresso.org/quote

     Parallel version (MPI), running on     2 processors

     MPI processes distributed on     1 nodes
     651 MiB available memory on the printing compute node when the environment starts

     Waiting for input...
     Reading input from standard input
Warning: card &CELL ignored
Warning: card / ignored

     Current dimensions of program PWSCF are:
     Max number of different atomic species (ntypx) = 10
     Max number of k-points (npk) =  40000
     Max angular momentum in pseudopotentials (lmaxx) =  4
     file O.pz-rrkjus.UPF: wavefunction(s)  2S renormalized
     Message from routine setup:
     using ibrav=0 with symmetry is DISCOURAGED, use correct ibrav instead

     R & G space division:  proc/nbgrp/npool/nimage =       2
     Subspace diagonalization in iterative solution of the eigenvalue problem:
     a serial algorithm will be used


     Parallelization info
     --------------------
     sticks:   dense  smooth     PW     G-vecs:    dense   smooth      PW
     Min         516     254     74                12286     4354     709
     Max         517     255     75                12287     4355     710
     Sum        1033     509    149                24573     8709    1419

     Using Slab Decomposition



     bravais-lattice index     =            0
     lattice parameter (alat)  =       7.3227  a.u.
     unit-cell volume          =     392.6555 (a.u.)^3
     number of atoms/cell      =            5
     number of atomic types    =            3
     number of electrons       =        44.00
     number of Kohn-Sham states=           22
     kinetic-energy cutoff     =      30.0000  Ry
     charge density cutoff     =     240.0000  Ry
     scf convergence threshold =      1.0E-07
     mixing beta               =       0.7000
     number of iterations used =            8  plain     mixing
     energy convergence thresh.=      1.0E-04
     force convergence thresh. =      1.0E-03
     Exchange-correlation= SLA  PZ   NOGX NOGC
                           (   1   1   0   0   0   0   0)
     nstep                     =           50


     celldm(1)=   7.322689  celldm(2)=   0.000000  celldm(3)=   0.000000
     celldm(4)=   0.000000  celldm(5)=   0.000000  celldm(6)=   0.000000

     crystal axes: (cart. coord. in units of alat)
               a(1) = (   1.000000   0.000000   0.000000 )  
               a(2) = (   0.000000   1.000000   0.000000 )  
               a(3) = (   0.000000   0.000000   1.000000 )  

     reciprocal axes: (cart. coord. in units 2 pi/alat)
               b(1) = (  1.000000  0.000000  0.000000 )  
               b(2) = (  0.000000  1.000000  0.000000 )  
               b(3) = (  0.000000  0.000000  1.000000 )  


     PseudoPot. # 1 for O  read from file:
     /home/bond/Software/QE/qe-7.4.1/pseudo/O.pz-rrkjus.UPF
     MD5 check sum: 24fb942a68ef5d262e498166c462ef4a
     Pseudo is Ultrasoft, Zval =  6.0
     Generated by new atomic code, or converted to UPF format
     Using radial grid of 1269 points,  4 beta functions with: 
                l(1) =   0
                l(2) =   0
                l(3) =   1
                l(4) =   1
     Q(r) pseudized with 0 coefficients 


     PseudoPot. # 2 for Pb read from file:
     /home/bond/Software/QE/qe-7.4.1/pseudo/Pb.pz-d-van.UPF
     MD5 check sum: 4e1e5920686a026ae26139ac417581ff
     Pseudo is Ultrasoft, Zval = 14.0
     Generated by new atomic code, or converted to UPF format
     Using radial grid of  899 points,  6 beta functions with: 
                l(1) =   0
                l(2) =   0
                l(3) =   1
                l(4) =   1
                l(5) =   2
                l(6) =   2
     Q(r) pseudized with  8 coefficients,  rinner =    1.000   1.000   1.000
                                                       1.000   1.000

     PseudoPot. # 3 for Ti read from file:
     /home/bond/Software/QE/qe-7.4.1/pseudo/Ti.pz-sp-van_ak.UPF
     MD5 check sum: 545d0e6e05332b8871a8093f427cb0ca
     Pseudo is Ultrasoft, Zval = 12.0
     Generated by new atomic code, or converted to UPF format
     Using radial grid of  851 points,  6 beta functions with: 
                l(1) =   0
                l(2) =   0
                l(3) =   1
                l(4) =   1
                l(5) =   2
                l(6) =   2
     Q(r) pseudized with  8 coefficients,  rinner =    1.000   1.000   1.000
                                                       1.000   1.000

     atomic species   valence    mass     pseudopotential
     O                 6.00    15.99900     O ( 1.00)
     Pb               14.00   207.20000     Pb( 1.00)
     Ti               12.00    47.86700     Ti( 1.00)

      8 Sym. Ops. (no inversion) found



   Cartesian axes

     site n.     atom                  positions (alat units)
         1        Pb     tau(   1) = (   0.0000000   0.0000000   0.0000000  )
         2        Ti     tau(   2) = (   0.5000000   0.5000000   0.4700000  )
         3        O      tau(   3) = (   0.0000000   0.5000000   0.5000000  )
         4        O      tau(   4) = (   0.5000000   0.0000000   0.5000000  )
         5        O      tau(   5) = (   0.5000000   0.5000000   0.0000000  )

     number of k points=     6
                       cart. coord. in units 2pi/alat
        k(    1) = (   0.1250000   0.1250000   0.1250000), wk =   0.2500000
        k(    2) = (   0.1250000   0.1250000   0.3750000), wk =   0.2500000
        k(    3) = (   0.1250000   0.3750000   0.3750000), wk =   0.5000000
        k(    4) = (   0.3750000   0.3750000   0.3750000), wk =   0.2500000
        k(    5) = (   0.3750000  -0.1250000   0.1250000), wk =   0.5000000
        k(    6) = (   0.3750000  -0.3750000   0.1250000), wk =   0.2500000

     Dense  grid:    24573 G-vectors     FFT dimensions: (  40,  40,  40)

     Smooth grid:     8709 G-vectors     FFT dimensions: (  25,  25,  25)

     Estimated max dynamical RAM per process >      51.19 MB

     Estimated total dynamical RAM >     102.38 MB

     Initial potential from superposition of free atoms

     starting charge      42.9982, renormalised to      44.0000
     Starting wfcs are   31 randomized atomic wfcs

     total cpu time spent up to now is        1.6 secs

     Self-consistent Calculation

     iteration #  1     ecut=    30.00 Ry     beta= 0.70
     Davidson diagonalization with overlap
     ethr =  1.00E-02,  avg # of iterations =  2.0

     total cpu time spent up to now is        2.1 secs

     total energy              =    -332.61995932 Ry
     estimated scf accuracy    <       1.09387406 Ry

     iteration #  2     ecut=    30.00 Ry     beta= 0.70
     Davidson diagonalization with overlap
     ethr =  2.49E-03,  avg # of iterations =  6.3

     total cpu time spent up to now is        2.6 secs

     total energy              =    -332.41518533 Ry
     estimated scf accuracy    <       3.94973467 Ry

     iteration #  3     ecut=    30.00 Ry     beta= 0.70
     Davidson diagonalization with overlap
     ethr =  2.49E-03,  avg # of iterations =  5.2

     total cpu time spent up to now is        3.0 secs

     total energy              =    -333.15710350 Ry
     estimated scf accuracy    <       0.20878221 Ry

     iteration #  4     ecut=    30.00 Ry     beta= 0.70
     Davidson diagonalization with overlap
     ethr =  4.75E-04,  avg # of iterations =  2.0

     total cpu time spent up to now is        3.4 secs

     total energy              =    -333.15544056 Ry
     estimated scf accuracy    <       0.05565154 Ry

     iteration #  5     ecut=    30.00 Ry     beta= 0.70
     Davidson diagonalization with overlap
     ethr =  1.26E-04,  avg # of iterations =  4.8

     total cpu time spent up to now is        3.8 secs

     total energy              =    -333.18175671 Ry
     estimated scf accuracy    <       0.02231631 Ry

     iteration #  6     ecut=    30.00 Ry     beta= 0.70
     Davidson diagonalization with overlap
     ethr =  5.07E-05,  avg # of iterations =  1.7

     total cpu time spent up to now is        4.2 secs

     total energy              =    -333.17983638 Ry
     estimated scf accuracy    <       0.00925816 Ry

     iteration #  7     ecut=    30.00 Ry     beta= 0.70
     Davidson diagonalization with overlap
     ethr =  2.10E-05,  avg # of iterations =  4.5

     total cpu time spent up to now is        4.6 secs

     total energy              =    -333.18226715 Ry
     estimated scf accuracy    <       0.00010789 Ry

     iteration #  8     ecut=    30.00 Ry     beta= 0.70
     Davidson diagonalization with overlap
     ethr =  2.45E-07,  avg # of iterations =  5.0

     total cpu time spent up to now is        5.1 secs

     total energy              =    -333.18228222 Ry
     estimated scf accuracy    <       0.00021371 Ry

     iteration #  9     ecut=    30.00 Ry     beta= 0.70
     Davidson diagonalization with overlap
     ethr =  2.45E-07,  avg # of iterations =  2.7

     total cpu time spent up to now is        5.5 secs

     total energy              =    -333.18227280 Ry
     estimated scf accuracy    <       0.00008168 Ry

     iteration # 10     ecut=    30.00 Ry     beta= 0.70
     Davidson diagonalization with overlap
     ethr =  1.86E-07,  avg # of iterations =  4.3

     total cpu time spent up to now is        5.9 secs

     total energy              =    -333.18228475 Ry
     estimated scf accuracy    <       0.00000286 Ry

     iteration # 11     ecut=    30.00 Ry     beta= 0.70
     Davidson diagonalization with overlap
     ethr =  6.49E-09,  avg # of iterations =  5.7

     total cpu time spent up to now is        6.3 secs

     total energy              =    -333.18228695 Ry
     estimated scf accuracy    <       0.00000199 Ry

     iteration # 12     ecut=    30.00 Ry     beta= 0.70
     Davidson diagonalization with overlap
     ethr =  4.53E-09,  avg # of iterations =  2.0

     total cpu time spent up to now is        6.7 secs

     total energy              =    -333.18228679 Ry
     estimated scf accuracy    <       0.00000068 Ry

     iteration # 13     ecut=    30.00 Ry     beta= 0.70
     Davidson diagonalization with overlap
     ethr =  1.54E-09,  avg # of iterations =  4.2

     total cpu time spent up to now is        7.1 secs

     total energy              =    -333.18228707 Ry
     estimated scf accuracy    <       0.00000015 Ry

     iteration # 14     ecut=    30.00 Ry     beta= 0.70
     Davidson diagonalization with overlap
     ethr =  3.44E-10,  avg # of iterations =  2.3

     total cpu time spent up to now is        7.5 secs

     End of self-consistent calculation

          k = 0.1250 0.1250 0.1250 (  1090 PWs)   bands (ev):

   -44.5810 -21.2424 -21.1869 -21.1858  -6.3243  -5.2736  -5.2166  -3.9700
    -3.9640  -3.9517  -3.7846  -3.7781   4.6509   7.2996   7.3295   8.0906
     9.0485   9.1203   9.7635   9.8623  10.0416  10.1745

          k = 0.1250 0.1250 0.3750 (  1095 PWs)   bands (ev):

   -44.5798 -21.3010 -21.1846 -21.1837  -5.8880  -5.1235  -5.0917  -4.0302
    -3.9652  -3.9473  -3.8765  -3.7550   3.8925   6.8316   7.2577   7.8637
     8.4939   8.6640   9.4273   9.9185  10.1739  10.9166

          k = 0.1250 0.3750 0.3750 (  1087 PWs)   bands (ev):

   -44.5785 -21.2974 -21.2405 -21.1820  -5.6739  -5.0288  -4.9263  -4.0036
    -3.9588  -3.9049  -3.8137  -3.6522   3.5400   6.7096   6.9500   7.1990
     7.5140   8.7205   9.3987   9.5229  10.0519  10.6996

          k = 0.3750 0.3750 0.3750 (  1082 PWs)   bands (ev):

   -44.5772 -21.2948 -21.2382 -21.2379  -5.3088  -5.1444  -5.1048  -3.9162
    -3.9088  -3.6252  -3.5603  -3.5421   4.1652   5.9183   5.9677   6.7097
     7.0951   7.1291   7.9942  10.6375  10.6865  10.7708

          k = 0.3750-0.1250 0.1250 (  1095 PWs)   bands (ev):

   -44.5798 -21.2444 -21.2400 -21.1842  -5.9278  -5.1397  -5.0537  -4.0271
    -3.9611  -3.9492  -3.8836  -3.7494   3.9167   6.8852   7.3650   7.8584
     8.4502   8.7920   9.3229   9.9260  10.0491  10.8575

          k = 0.3750-0.3750 0.1250 (  1087 PWs)   bands (ev):

   -44.5785 -21.2414 -21.2402 -21.2377  -5.7485  -4.9791  -4.9036  -3.9970
    -3.9567  -3.8979  -3.8109  -3.6783   3.5620   6.8418   6.8870   7.1704
     7.4746   8.6905   9.4888   9.5078  10.0342  10.7716

     highest occupied level (ev):    10.9166

!    total energy              =    -333.18228703 Ry
     estimated scf accuracy    <       0.00000005 Ry

     The total energy is the sum of the following terms:
     one-electron contribution =     -76.81539761 Ry
     hartree contribution      =      66.41410038 Ry
     xc contribution           =     -49.66288819 Ry
     ewald contribution        =    -273.11810161 Ry

     convergence has been achieved in  14 iterations

     Forces acting on atoms (cartesian axes, Ry/au):

     atom    1 type  2   force =     0.00000000    0.00000000   -0.01311084
     atom    2 type  3   force =     0.00000000    0.00000000    0.02647630
     atom    3 type  1   force =     0.00000000    0.00000000   -0.00015536
     atom    4 type  1   force =     0.00000000    0.00000000   -0.00015536
     atom    5 type  1   force =     0.00000000    0.00000000   -0.01305474

     Total force =     0.013057     Total SCF correction =     0.000090


     Computing stress (Cartesian axis) and pressure

          total   stress  (Ry/bohr**3)                   (kbar)     P=       -5.92
  -0.00008793   0.00000000   0.00000000          -12.93        0.00        0.00
   0.00000000  -0.00008793   0.00000000            0.00      -12.93        0.00
   0.00000000   0.00000000   0.00005517            0.00        0.00        8.12


     BFGS Geometry Optimization
     Energy error            =      1.8E-04 Ry
     Gradient error          =      1.3E-02 Ry/Bohr

     number of scf cycles    =   1
     number of bfgs steps    =   0

     energy             new  =    -333.1822870337 Ry

     new trust radius        =       0.0130547393 bohr
     new conv_thr            =       0.0000001000 Ry


ATOMIC_POSITIONS (angstrom)
Pb               0.0000000000        0.0000000000        0.0000000000    0   0   0
Ti               1.9375000000        1.9375000000        1.8212500000    0   0   0
O                0.0000000000        1.9375000000        1.9374177878
O                1.9375000000        0.0000000000        1.9374177878
O                1.9375000000        1.9375000000       -0.0069082705


     Message from routine punch:
     Nothing written, as per user request (disk_io='none')
     NEW-OLD atomic charge density approx. for the potential

     total cpu time spent up to now is        8.9 secs

     Self-consistent Calculation

     iteration #  1     ecut=    30.00 Ry     beta= 0.70
     Davidson diagonalization with overlap
     ethr =  1.00E-06,  avg # of iterations =  4.3

     Threshold (ethr) on eigenvalues was too large:
     Diagonalizing with lowered threshold

     Davidson diagonalization with overlap
     ethr =  6.22E-08,  avg # of iterations =  3.5

     total cpu time spent up to now is        9.7 secs

     total energy              =    -333.18242286 Ry
     estimated scf accuracy    <       0.00003121 Ry

     iteration #  2     ecut=    30.00 Ry     beta= 0.70
     Davidson diagonalization with overlap
     ethr =  7.09E-08,  avg # of iterations =  4.2

     total cpu time spent up to now is       10.1 secs

     total energy              =    -333.18242660 Ry
     estimated scf accuracy    <       0.00001565 Ry

     iteration #  3     ecut=    30.00 Ry     beta= 0.70
     Davidson diagonalization with overlap
     ethr =  3.56E-08,  avg # of iterations =  4.5

     total cpu time spent up to now is       10.5 secs

     total energy              =    -333.18243019 Ry
     estimated scf accuracy    <       0.00000604 Ry

     iteration #  4     ecut=    30.00 Ry     beta= 0.70
     Davidson diagonalization with overlap
     ethr =  1.37E-08,  avg # of iterations =  3.5

     total cpu time spent up to now is       10.9 secs

     total energy              =    -333.18243123 Ry
     estimated scf accuracy    <       0.00000014 Ry

     iteration #  5     ecut=    30.00 Ry     beta= 0.70
     Davidson diagonalization with overlap
     ethr =  3.29E-10,  avg # of iterations =  6.2

     total cpu time spent up to now is       11.4 secs

     total energy              =    -333.18243138 Ry
     estimated scf accuracy    <       0.00000039 Ry

     iteration #  6     ecut=    30.00 Ry     beta= 0.70
     Davidson diagonalization with overlap
     ethr =  3.29E-10,  avg # of iterations =  3.7

     total cpu time spent up to now is       11.8 secs

     End of self-consistent calculation

          k = 0.1250 0.1250 0.1250 (  1090 PWs)   bands (ev):

   -44.5917 -21.2464 -21.1976 -21.1966  -6.3250  -5.2709  -5.2188  -3.9678
    -3.9622  -3.9499  -3.7826  -3.7767   4.6527   7.3003   7.3274   8.0891
     9.0566   9.1255   9.7756   9.8636  10.0387  10.1759

          k = 0.1250 0.1250 0.3750 (  1095 PWs)   bands (ev):

   -44.5905 -21.3049 -21.1953 -21.1944  -5.8905  -5.1192  -5.0943  -4.0281
    -3.9630  -3.9456  -3.8751  -3.7529   3.8966   6.8317   7.2623   7.8597
     8.4944   8.6737   9.4265   9.9200  10.1709  10.9159

          k = 0.1250 0.3750 0.3750 (  1087 PWs)   bands (ev):

   -44.5892 -21.3013 -21.2512 -21.1928  -5.6761  -5.0251  -4.9278  -4.0014
    -3.9567  -3.9030  -3.8119  -3.6513   3.5427   6.7149   6.9460   7.1983
     7.5132   8.7181   9.4068   9.5211  10.0546  10.7027

          k = 0.3750 0.3750 0.3750 (  1082 PWs)   bands (ev):

   -44.5879 -21.2987 -21.2488 -21.2485  -5.3077  -5.1432  -5.1067  -3.9139
    -3.9071  -3.6230  -3.5584  -3.5416   4.1671   5.9226   5.9675   6.7082
     7.0943   7.1248   7.9966  10.6430  10.6897  10.7695

          k = 0.3750-0.1250 0.1250 (  1095 PWs)   bands (ev):

   -44.5905 -21.2549 -21.2441 -21.1949  -5.9272  -5.1382  -5.0560  -4.0253
    -3.9591  -3.9473  -3.8816  -3.7479   3.9185   6.8826   7.3657   7.8582
     8.4506   8.7921   9.3304   9.9283  10.0545  10.8606

          k = 0.3750-0.3750 0.1250 (  1087 PWs)   bands (ev):

   -44.5892 -21.2518 -21.2508 -21.2419  -5.7448  -4.9810  -4.9061  -3.9954
    -3.9548  -3.8965  -3.8094  -3.6753   3.5623   6.8395   6.8852   7.1759
     7.4804   8.6910   9.4901   9.5069  10.0353  10.7695

     highest occupied level (ev):    10.9159

!    total energy              =    -333.18243132 Ry
     estimated scf accuracy    <       0.00000009 Ry

     The total energy is the sum of the following terms:
     one-electron contribution =     -76.74812908 Ry
     hartree contribution      =      66.37900372 Ry
     xc contribution           =     -49.66037702 Ry
     ewald contribution        =    -273.15292895 Ry

     convergence has been achieved in   6 iterations

     Forces acting on atoms (cartesian axes, Ry/au):

     atom    1 type  2   force =     0.00000000    0.00000000   -0.01332028
     atom    2 type  3   force =     0.00000000    0.00000000    0.02467598
     atom    3 type  1   force =     0.00000000    0.00000000   -0.00136439
     atom    4 type  1   force =     0.00000000    0.00000000   -0.00136439
     atom    5 type  1   force =     0.00000000    0.00000000   -0.00862692

     Total force =     0.008840     Total SCF correction =     0.000094


     Computing stress (Cartesian axis) and pressure

          total   stress  (Ry/bohr**3)                   (kbar)     P=       -6.51
  -0.00008572   0.00000000   0.00000000          -12.61        0.00        0.00
   0.00000000  -0.00008572   0.00000000            0.00      -12.61        0.00
   0.00000000   0.00000000   0.00003867            0.00        0.00        5.69

     Energy error            =      1.4E-04 Ry
     Gradient error          =      8.6E-03 Ry/Bohr

     number of scf cycles    =   2
     number of bfgs steps    =   1

     energy             old  =    -333.1822870337 Ry
     energy             new  =    -333.1824313230 Ry

     CASE: energy            _new < energy            _old

     new trust radius        =       0.0143602132 bohr
     new conv_thr            =       0.0000000014 Ry


ATOMIC_POSITIONS (angstrom)
Pb               0.0000000000        0.0000000000        0.0000000000    0   0   0
Ti               1.9375000000        1.9375000000        1.8212500000    0   0   0
O                0.0000000000        1.9375000000        1.9363019558
O                1.9375000000        0.0000000000        1.9363019558
O                1.9375000000        1.9375000000       -0.0145073681


     Message from routine punch:
     Nothing written, as per user request (disk_io='none')
     NEW-OLD atomic charge density approx. for the potential

     total cpu time spent up to now is       13.2 secs

     Self-consistent Calculation

     iteration #  1     ecut=    30.00 Ry     beta= 0.70
     Davidson diagonalization with overlap
     ethr =  1.00E-06,  avg # of iterations =  4.3

     Threshold (ethr) on eigenvalues was too large:
     Diagonalizing with lowered threshold

     Davidson diagonalization with overlap
     ethr =  9.16E-08,  avg # of iterations =  3.7

     total cpu time spent up to now is       13.9 secs

     total energy              =    -333.18251523 Ry
     estimated scf accuracy    <       0.00004710 Ry

     iteration #  2     ecut=    30.00 Ry     beta= 0.70
     Davidson diagonalization with overlap
     ethr =  1.07E-07,  avg # of iterations =  5.3

     total cpu time spent up to now is       14.4 secs

     total energy              =    -333.18251491 Ry
     estimated scf accuracy    <       0.00006777 Ry

     iteration #  3     ecut=    30.00 Ry     beta= 0.70
     Davidson diagonalization with overlap
     ethr =  1.07E-07,  avg # of iterations =  4.5

     total cpu time spent up to now is       14.8 secs

     total energy              =    -333.18253006 Ry
     estimated scf accuracy    <       0.00000612 Ry

     iteration #  4     ecut=    30.00 Ry     beta= 0.70
     Davidson diagonalization with overlap
     ethr =  1.39E-08,  avg # of iterations =  3.0

     total cpu time spent up to now is       15.2 secs

     total energy              =    -333.18253075 Ry
     estimated scf accuracy    <       0.00000071 Ry

     iteration #  5     ecut=    30.00 Ry     beta= 0.70
     Davidson diagonalization with overlap
     ethr =  1.62E-09,  avg # of iterations =  5.2

     total cpu time spent up to now is       15.7 secs

     total energy              =    -333.18253111 Ry
     estimated scf accuracy    <       0.00000019 Ry

     iteration #  6     ecut=    30.00 Ry     beta= 0.70
     Davidson diagonalization with overlap
     ethr =  4.32E-10,  avg # of iterations =  2.0

     total cpu time spent up to now is       16.0 secs

     total energy              =    -333.18253110 Ry
     estimated scf accuracy    <       0.00000007 Ry

     iteration #  7     ecut=    30.00 Ry     beta= 0.70
     Davidson diagonalization with overlap
     ethr =  1.64E-10,  avg # of iterations =  4.7

     total cpu time spent up to now is       16.5 secs

     total energy              =    -333.18253113 Ry
     estimated scf accuracy    <          3.0E-09 Ry

     iteration #  8     ecut=    30.00 Ry     beta= 0.70
     Davidson diagonalization with overlap
     ethr =  6.91E-12,  avg # of iterations =  3.7

     total cpu time spent up to now is       16.9 secs

     total energy              =    -333.18253112 Ry
     estimated scf accuracy    <          2.7E-09 Ry

     iteration #  9     ecut=    30.00 Ry     beta= 0.70
     Davidson diagonalization with overlap
     ethr =  6.16E-12,  avg # of iterations =  4.7

     total cpu time spent up to now is       17.3 secs

     End of self-consistent calculation

          k = 0.1250 0.1250 0.1250 (  1090 PWs)   bands (ev):

   -44.6003 -21.2484 -21.2064 -21.2054  -6.3258  -5.2684  -5.2214  -3.9659
    -3.9609  -3.9485  -3.7810  -3.7757   4.6542   7.3010   7.3251   8.0880
     9.0657   9.1304   9.7899   9.8654  10.0353  10.1765

          k = 0.1250 0.1250 0.3750 (  1095 PWs)   bands (ev):

   -44.5991 -21.3068 -21.2042 -21.2032  -5.8933  -5.1150  -5.0973  -4.0263
    -3.9611  -3.9443  -3.8741  -3.7512   3.9007   6.8321   7.2678   7.8561
     8.4945   8.6835   9.4258   9.9220  10.1675  10.9146

          k = 0.1250 0.3750 0.3750 (  1087 PWs)   bands (ev):

   -44.5978 -21.3032 -21.2600 -21.2016  -5.6785  -5.0217  -4.9292  -3.9997
    -3.9551  -3.9014  -3.8105  -3.6507   3.5452   6.7214   6.9411   7.1975
     7.5122   8.7157   9.4150   9.5192  10.0571  10.7061

          k = 0.3750 0.3750 0.3750 (  1082 PWs)   bands (ev):

   -44.5965 -21.3007 -21.2576 -21.2573  -5.3069  -5.1419  -5.1087  -3.9120
    -3.9059  -3.6212  -3.5568  -3.5415   4.1686   5.9268   5.9670   6.7075
     7.0927   7.1199   7.9988  10.6486  10.6927  10.7682

          k = 0.3750-0.1250 0.1250 (  1095 PWs)   bands (ev):

   -44.5991 -21.2637 -21.2461 -21.2037  -5.9268  -5.1370  -5.0584  -4.0238
    -3.9576  -3.9459  -3.8800  -3.7468   3.9200   6.8800   7.3662   7.8577
     8.4512   8.7914   9.3385   9.9308  10.0606  10.8634

          k = 0.3750-0.3750 0.1250 (  1087 PWs)   bands (ev):

   -44.5978 -21.2606 -21.2596 -21.2439  -5.7411  -4.9830  -4.9088  -3.9942
    -3.9533  -3.8955  -3.8082  -3.6727   3.5624   6.8375   6.8831   7.1810
     7.4860   8.6911   9.4908   9.5061  10.0366  10.7670

     highest occupied level (ev):    10.9146

!    total energy              =    -333.18253113 Ry
     estimated scf accuracy    <          1.6E-10 Ry

     The total energy is the sum of the following terms:
     one-electron contribution =     -76.68266249 Ry
     hartree contribution      =      66.34333711 Ry
     xc contribution           =     -49.65790903 Ry
     ewald contribution        =    -273.18529672 Ry

     convergence has been achieved in   9 iterations

     Forces acting on atoms (cartesian axes, Ry/au):

     atom    1 type  2   force =     0.00000000    0.00000000   -0.01340821
     atom    2 type  3   force =     0.00000000    0.00000000    0.02284944
     atom    3 type  1   force =     0.00000000    0.00000000   -0.00255122
     atom    4 type  1   force =     0.00000000    0.00000000   -0.00255122
     atom    5 type  1   force =     0.00000000    0.00000000   -0.00433880

     Total force =     0.005643     Total SCF correction =     0.000002


     Computing stress (Cartesian axis) and pressure

          total   stress  (Ry/bohr**3)                   (kbar)     P=       -8.52
  -0.00009282   0.00000000   0.00000000          -13.65        0.00        0.00
   0.00000000  -0.00009282   0.00000000            0.00      -13.65        0.00
   0.00000000   0.00000000   0.00001184            0.00        0.00        1.74

     Energy error            =      1.0E-04 Ry
     Gradient error          =      4.3E-03 Ry/Bohr

     number of scf cycles    =   3
     number of bfgs steps    =   2

     energy             old  =    -333.1824313230 Ry
     energy             new  =    -333.1825311252 Ry

     CASE: energy            _new < energy            _old

     new trust radius        =       0.0209221602 bohr
     new conv_thr            =       0.0000000010 Ry


ATOMIC_POSITIONS (angstrom)
Pb               0.0000000000        0.0000000000        0.0000000000    0   0   0
Ti               1.9375000000        1.9375000000        1.8212500000    0   0   0
O                0.0000000000        1.9375000000        1.9325896950
O                1.9375000000        0.0000000000        1.9325896950
O                1.9375000000        1.9375000000       -0.0255788985


     Message from routine punch:
     Nothing written, as per user request (disk_io='none')
     NEW-OLD atomic charge density approx. for the potential

     total cpu time spent up to now is       18.8 secs

     Self-consistent Calculation

     iteration #  1     ecut=    30.00 Ry     beta= 0.70
     Davidson diagonalization with overlap
     ethr =  1.00E-06,  avg # of iterations =  5.3

     total cpu time spent up to now is       19.2 secs

     total energy              =    -333.18259402 Ry
     estimated scf accuracy    <       0.00007740 Ry

     iteration #  2     ecut=    30.00 Ry     beta= 0.70
     Davidson diagonalization with overlap
     ethr =  1.76E-07,  avg # of iterations =  4.5

     total cpu time spent up to now is       19.7 secs

     total energy              =    -333.18259950 Ry
     estimated scf accuracy    <       0.00004701 Ry

     iteration #  3     ecut=    30.00 Ry     beta= 0.70
     Davidson diagonalization with overlap
     ethr =  1.07E-07,  avg # of iterations =  4.5

     total cpu time spent up to now is       20.1 secs

     total energy              =    -333.18261108 Ry
     estimated scf accuracy    <       0.00001923 Ry

     iteration #  4     ecut=    30.00 Ry     beta= 0.70
     Davidson diagonalization with overlap
     ethr =  4.37E-08,  avg # of iterations =  3.8

     total cpu time spent up to now is       20.5 secs

     total energy              =    -333.18261359 Ry
     estimated scf accuracy    <       0.00000084 Ry

     iteration #  5     ecut=    30.00 Ry     beta= 0.70
     Davidson diagonalization with overlap
     ethr =  1.90E-09,  avg # of iterations =  5.7

     total cpu time spent up to now is       21.0 secs

     total energy              =    -333.18261449 Ry
     estimated scf accuracy    <       0.00000137 Ry

     iteration #  6     ecut=    30.00 Ry     beta= 0.70
     Davidson diagonalization with overlap
     ethr =  1.90E-09,  avg # of iterations =  2.3

     total cpu time spent up to now is       21.4 secs

     total energy              =    -333.18261430 Ry
     estimated scf accuracy    <       0.00000072 Ry

     iteration #  7     ecut=    30.00 Ry     beta= 0.70
     Davidson diagonalization with overlap
     ethr =  1.65E-09,  avg # of iterations =  4.3

     total cpu time spent up to now is       21.8 secs

     total energy              =    -333.18261447 Ry
     estimated scf accuracy    <       0.00000002 Ry

     iteration #  8     ecut=    30.00 Ry     beta= 0.70
     Davidson diagonalization with overlap
     ethr =  4.04E-11,  avg # of iterations =  4.7

     total cpu time spent up to now is       22.3 secs

     total energy              =    -333.18261448 Ry
     estimated scf accuracy    <       0.00000001 Ry

     iteration #  9     ecut=    30.00 Ry     beta= 0.70
     Davidson diagonalization with overlap
     ethr =  2.87E-11,  avg # of iterations =  4.5

     total cpu time spent up to now is       22.8 secs

     End of self-consistent calculation

          k = 0.1250 0.1250 0.1250 (  1090 PWs)   bands (ev):

   -44.6130 -21.2523 -21.2194 -21.2183  -6.3268  -5.2649  -5.2257  -3.9633
    -3.9590  -3.9465  -3.7788  -3.7742   4.6562   7.3023   7.3219   8.0874
     9.0789   9.1364   9.8129   9.8695  10.0294  10.1752

          k = 0.1250 0.1250 0.3750 (  1095 PWs)   bands (ev):

   -44.6118 -21.3106 -21.2171 -21.2162  -5.8974  -5.1086  -5.1023  -4.0239
    -3.9585  -3.9425  -3.8727  -3.7488   3.9067   6.8330   7.2773   7.8521
     8.4926   8.6970   9.4241   9.9259  10.1620  10.9119

          k = 0.1250 0.3750 0.3750 (  1087 PWs)   bands (ev):

   -44.6105 -21.3070 -21.2729 -21.2146  -5.6824  -5.0167  -4.9310  -3.9973
    -3.9528  -3.8992  -3.8084  -3.6500   3.5485   6.7319   6.9322   7.1964
     7.5105   8.7117   9.4256   9.5162  10.0600  10.7114

          k = 0.3750 0.3750 0.3750 (  1082 PWs)   bands (ev):

   -44.6092 -21.3045 -21.2705 -21.2703  -5.3055  -5.1397  -5.1118  -3.9094
    -3.9041  -3.6186  -3.5545  -3.5412   4.1705   5.9325   5.9656   6.7075
     7.0884   7.1107   8.0014  10.6570  10.6964  10.7669

          k = 0.3750-0.1250 0.1250 (  1095 PWs)   bands (ev):

   -44.6118 -21.2766 -21.2500 -21.2167  -5.9258  -5.1355  -5.0620  -4.0218
    -3.9555  -3.9438  -3.8775  -3.7452   3.9222   6.8754   7.3659   7.8571
     8.4522   8.7889   9.3499   9.9349  10.0702  10.8673

          k = 0.3750-0.3750 0.1250 (  1087 PWs)   bands (ev):

   -44.6105 -21.2735 -21.2725 -21.2479  -5.7352  -4.9861  -4.9127  -3.9925
    -3.9512  -3.8940  -3.8066  -3.6690   3.5622   6.8344   6.8790   7.1870
     7.4923   8.6910   9.4905   9.5051  10.0393  10.7633

     highest occupied level (ev):    10.9119

!    total energy              =    -333.18261448 Ry
     estimated scf accuracy    <          2.4E-10 Ry

     The total energy is the sum of the following terms:
     one-electron contribution =     -76.61049374 Ry
     hartree contribution      =      66.30409265 Ry
     xc contribution           =     -49.65491434 Ry
     ewald contribution        =    -273.22129904 Ry

     convergence has been achieved in   9 iterations

     Forces acting on atoms (cartesian axes, Ry/au):

     atom    1 type  2   force =     0.00000000    0.00000000   -0.01336896
     atom    2 type  3   force =     0.00000000    0.00000000    0.02048174
     atom    3 type  1   force =     0.00000000    0.00000000   -0.00399913
     atom    4 type  1   force =     0.00000000    0.00000000   -0.00399913
     atom    5 type  1   force =     0.00000000    0.00000000    0.00088549

     Total force =     0.005725     Total SCF correction =     0.000003


     Computing stress (Cartesian axis) and pressure

          total   stress  (Ry/bohr**3)                   (kbar)     P=      -10.33
  -0.00009644   0.00000000   0.00000000          -14.19        0.00        0.00
   0.00000000  -0.00009644   0.00000000            0.00      -14.19        0.00
   0.00000000   0.00000000  -0.00001780            0.00        0.00       -2.62

     Energy error            =      8.3E-05 Ry
     Gradient error          =      4.0E-03 Ry/Bohr

     number of scf cycles    =   4
     number of bfgs steps    =   3

     energy             old  =    -333.1825311252 Ry
     energy             new  =    -333.1826144782 Ry

     CASE: energy            _new < energy            _old

     new trust radius        =       0.0120304061 bohr
     new conv_thr            =       0.0000000010 Ry


ATOMIC_POSITIONS (angstrom)
Pb               0.0000000000        0.0000000000        0.0000000000    0   0   0
Ti               1.9375000000        1.9375000000        1.8212500000    0   0   0
O                0.0000000000        1.9375000000        1.9279723591
O                1.9375000000        0.0000000000        1.9279723591
O                1.9375000000        1.9375000000       -0.0319451152


     Message from routine punch:
     Nothing written, as per user request (disk_io='none')
     NEW-OLD atomic charge density approx. for the potential

     total cpu time spent up to now is       24.6 secs

     Self-consistent Calculation

     iteration #  1     ecut=    30.00 Ry     beta= 0.70
     Davidson diagonalization with overlap
     ethr =  1.00E-06,  avg # of iterations =  4.7

     Threshold (ethr) on eigenvalues was too large:
     Diagonalizing with lowered threshold

     Davidson diagonalization with overlap
     ethr =  6.72E-08,  avg # of iterations =  3.7

     total cpu time spent up to now is       25.3 secs

     total energy              =    -333.18265832 Ry
     estimated scf accuracy    <       0.00003174 Ry

     iteration #  2     ecut=    30.00 Ry     beta= 0.70
     Davidson diagonalization with overlap
     ethr =  7.21E-08,  avg # of iterations =  4.7

     total cpu time spent up to now is       25.8 secs

     total energy              =    -333.18265794 Ry
     estimated scf accuracy    <       0.00001794 Ry

     iteration #  3     ecut=    30.00 Ry     beta= 0.70
     Davidson diagonalization with overlap
     ethr =  4.08E-08,  avg # of iterations =  4.7

     total cpu time spent up to now is       26.2 secs

     total energy              =    -333.18266296 Ry
     estimated scf accuracy    <       0.00001070 Ry

     iteration #  4     ecut=    30.00 Ry     beta= 0.70
     Davidson diagonalization with overlap
     ethr =  2.43E-08,  avg # of iterations =  3.0

     total cpu time spent up to now is       26.6 secs

     total energy              =    -333.18266384 Ry
     estimated scf accuracy    <       0.00000094 Ry

     iteration #  5     ecut=    30.00 Ry     beta= 0.70
     Davidson diagonalization with overlap
     ethr =  2.14E-09,  avg # of iterations =  5.2

     total cpu time spent up to now is       27.0 secs

     total energy              =    -333.18266459 Ry
     estimated scf accuracy    <       0.00000098 Ry

     iteration #  6     ecut=    30.00 Ry     beta= 0.70
     Davidson diagonalization with overlap
     ethr =  2.14E-09,  avg # of iterations =  1.2

     total cpu time spent up to now is       27.4 secs

     total energy              =    -333.18266444 Ry
     estimated scf accuracy    <       0.00000061 Ry

     iteration #  7     ecut=    30.00 Ry     beta= 0.70
     Davidson diagonalization with overlap
     ethr =  1.39E-09,  avg # of iterations =  2.7

     total cpu time spent up to now is       27.8 secs

     total energy              =    -333.18266452 Ry
     estimated scf accuracy    <       0.00000006 Ry

     iteration #  8     ecut=    30.00 Ry     beta= 0.70
     Davidson diagonalization with overlap
     ethr =  1.27E-10,  avg # of iterations =  4.8

     total cpu time spent up to now is       28.2 secs

     total energy              =    -333.18266454 Ry
     estimated scf accuracy    <          1.3E-09 Ry

     iteration #  9     ecut=    30.00 Ry     beta= 0.70
     Davidson diagonalization with overlap
     ethr =  2.93E-12,  avg # of iterations =  4.7

     total cpu time spent up to now is       28.6 secs

     End of self-consistent calculation

          k = 0.1250 0.1250 0.1250 (  1090 PWs)   bands (ev):

   -44.6194 -21.2541 -21.2260 -21.2250  -6.3272  -5.2633  -5.2289  -3.9621
    -3.9581  -3.9456  -3.7778  -3.7736   4.6574   7.3034   7.3203   8.0880
     9.0868   9.1392   9.8286   9.8729  10.0246  10.1721

          k = 0.1250 0.1250 0.3750 (  1095 PWs)   bands (ev):

   -44.6182 -21.3124 -21.2238 -21.2229  -5.9001  -5.1059  -5.1050  -4.0226
    -3.9572  -3.9416  -3.8720  -3.7477   3.9102   6.8340   7.2847   7.8512
     8.4893   8.7041   9.4221   9.9291  10.1580  10.9093

          k = 0.1250 0.3750 0.3750 (  1087 PWs)   bands (ev):

   -44.6169 -21.3088 -21.2796 -21.2212  -5.6850  -5.0140  -4.9320  -3.9960
    -3.9516  -3.8980  -3.8074  -3.6498   3.5502   6.7393   6.9250   7.1958
     7.5092   8.7089   9.4307   9.5140  10.0611  10.7146

          k = 0.3750 0.3750 0.3750 (  1082 PWs)   bands (ev):

   -44.6156 -21.3063 -21.2772 -21.2769  -5.3046  -5.1385  -5.1137  -3.9081
    -3.9033  -3.6172  -3.5533  -3.5411   4.1710   5.9355   5.9641   6.7086
     7.0840   7.1031   8.0026  10.6618  10.6979  10.7661

          k = 0.3750-0.1250 0.1250 (  1095 PWs)   bands (ev):

   -44.6182 -21.2832 -21.2519 -21.2234  -5.9251  -5.1352  -5.0643  -4.0208
    -3.9545  -3.9428  -3.8762  -3.7444   3.9232   6.8720   7.3647   7.8569
     8.4532   8.7859   9.3561   9.9374  10.0764  10.8690

          k = 0.3750-0.3750 0.1250 (  1087 PWs)   bands (ev):

   -44.6169 -21.2801 -21.2792 -21.2497  -5.7315  -4.9881  -4.9152  -3.9918
    -3.9501  -3.8932  -3.8057  -3.6670   3.5616   6.8324   6.8758   7.1890
     7.4940   8.6906   9.4890   9.5045  10.0413  10.7606

     highest occupied level (ev):    10.9093

!    total energy              =    -333.18266454 Ry
     estimated scf accuracy    <          9.7E-10 Ry

     The total energy is the sum of the following terms:
     one-electron contribution =     -76.58803619 Ry
     hartree contribution      =      66.29116935 Ry
     xc contribution           =     -49.65364836 Ry
     ewald contribution        =    -273.23214934 Ry

     convergence has been achieved in   9 iterations

     Forces acting on atoms (cartesian axes, Ry/au):

     atom    1 type  2   force =     0.00000000    0.00000000   -0.01311573
     atom    2 type  3   force =     0.00000000    0.00000000    0.01925291
     atom    3 type  1   force =     0.00000000    0.00000000   -0.00448877
     atom    4 type  1   force =     0.00000000    0.00000000   -0.00448877
     atom    5 type  1   force =     0.00000000    0.00000000    0.00284037

     Total force =     0.006955     Total SCF correction =     0.000017


     Computing stress (Cartesian axis) and pressure

          total   stress  (Ry/bohr**3)                   (kbar)     P=      -11.13
  -0.00009733   0.00000000   0.00000000          -14.32        0.00        0.00
   0.00000000  -0.00009733   0.00000000            0.00      -14.32        0.00
   0.00000000   0.00000000  -0.00003222            0.00        0.00       -4.74

     Energy error            =      5.0E-05 Ry
     Gradient error          =      4.5E-03 Ry/Bohr

     number of scf cycles    =   5
     number of bfgs steps    =   4

     energy             old  =    -333.1826144782 Ry
     energy             new  =    -333.1826645401 Ry

     CASE: energy            _new < energy            _old

     new trust radius        =       0.0132334467 bohr
     new conv_thr            =       0.0000000010 Ry


ATOMIC_POSITIONS (angstrom)
Pb               0.0000000000        0.0000000000        0.0000000000    0   0   0
Ti               1.9375000000        1.9375000000        1.8212500000    0   0   0
O                0.0000000000        1.9375000000        1.9210062512
O                1.9375000000        0.0000000000        1.9210062512
O                1.9375000000        1.9375000000       -0.0389479536


     Message from routine punch:
     Nothing written, as per user request (disk_io='none')
     NEW-OLD atomic charge density approx. for the potential

     total cpu time spent up to now is       30.1 secs

     Self-consistent Calculation

     iteration #  1     ecut=    30.00 Ry     beta= 0.70
     Davidson diagonalization with overlap
     ethr =  1.00E-06,  avg # of iterations =  5.3

     total cpu time spent up to now is       30.6 secs

     total energy              =    -333.18273339 Ry
     estimated scf accuracy    <       0.00004550 Ry

     iteration #  2     ecut=    30.00 Ry     beta= 0.70
     Davidson diagonalization with overlap
     ethr =  1.03E-07,  avg # of iterations =  4.3

     total cpu time spent up to now is       31.1 secs

     total energy              =    -333.18273766 Ry
     estimated scf accuracy    <       0.00001124 Ry

     iteration #  3     ecut=    30.00 Ry     beta= 0.70
     Davidson diagonalization with overlap
     ethr =  2.55E-08,  avg # of iterations =  5.2

     total cpu time spent up to now is       31.6 secs

     total energy              =    -333.18274009 Ry
     estimated scf accuracy    <       0.00001304 Ry

     iteration #  4     ecut=    30.00 Ry     beta= 0.70
     Davidson diagonalization with overlap
     ethr =  2.55E-08,  avg # of iterations =  4.0

     total cpu time spent up to now is       32.0 secs

     total energy              =    -333.18274230 Ry
     estimated scf accuracy    <       0.00000012 Ry

     iteration #  5     ecut=    30.00 Ry     beta= 0.70
     Davidson diagonalization with overlap
     ethr =  2.66E-10,  avg # of iterations =  6.8

     total cpu time spent up to now is       32.5 secs

     total energy              =    -333.18274247 Ry
     estimated scf accuracy    <       0.00000058 Ry

     iteration #  6     ecut=    30.00 Ry     beta= 0.70
     Davidson diagonalization with overlap
     ethr =  2.66E-10,  avg # of iterations =  4.5

     total cpu time spent up to now is       33.0 secs

     total energy              =    -333.18274249 Ry
     estimated scf accuracy    <       0.00000010 Ry

     iteration #  7     ecut=    30.00 Ry     beta= 0.70
     Davidson diagonalization with overlap
     ethr =  2.30E-10,  avg # of iterations =  3.7

     total cpu time spent up to now is       33.9 secs

     total energy              =    -333.18274250 Ry
     estimated scf accuracy    <       0.00000002 Ry

     iteration #  8     ecut=    30.00 Ry     beta= 0.70
     Davidson diagonalization with overlap
     ethr =  3.81E-11,  avg # of iterations =  5.0

     total cpu time spent up to now is       35.0 secs

     total energy              =    -333.18274251 Ry
     estimated scf accuracy    <       0.00000001 Ry

     iteration #  9     ecut=    30.00 Ry     beta= 0.70
     Davidson diagonalization with overlap
     ethr =  2.51E-11,  avg # of iterations =  1.8

     total cpu time spent up to now is       35.8 secs

     total energy              =    -333.18274251 Ry
     estimated scf accuracy    <          4.1E-09 Ry

     iteration # 10     ecut=    30.00 Ry     beta= 0.70
     Davidson diagonalization with overlap
     ethr =  9.36E-12,  avg # of iterations =  4.5

     total cpu time spent up to now is       36.7 secs

     End of self-consistent calculation

          k = 0.1250 0.1250 0.1250 (  1090 PWs)   bands (ev):

   -44.6263 -21.2564 -21.2332 -21.2322  -6.3277  -5.2617  -5.2331  -3.9607
    -3.9572  -3.9445  -3.7767  -3.7728   4.6586   7.3049   7.3189   8.0893
     9.0954   9.1418   9.8474   9.8775  10.0185  10.1667

          k = 0.1250 0.1250 0.3750 (  1095 PWs)   bands (ev):

   -44.6250 -21.3145 -21.2310 -21.2300  -5.9034  -5.1106  -5.1010  -4.0212
    -3.9557  -3.9406  -3.8712  -3.7464   3.9142   6.8354   7.2942   7.8510
     8.4840   8.7116   9.4191   9.9332  10.1530  10.9057

          k = 0.1250 0.3750 0.3750 (  1087 PWs)   bands (ev):

   -44.6237 -21.3110 -21.2868 -21.2284  -5.6882  -5.0113  -4.9331  -3.9947
    -3.9504  -3.8968  -3.8062  -3.6495   3.5520   6.7485   6.9156   7.1951
     7.5075   8.7055   9.4353   9.5111  10.0619  10.7183

          k = 0.3750 0.3750 0.3750 (  1082 PWs)   bands (ev):

   -44.6225 -21.3084 -21.2844 -21.2841  -5.3037  -5.1370  -5.1161  -3.9067
    -3.9024  -3.6157  -3.5519  -3.5409   4.1710   5.9385   5.9619   6.7105
     7.0777   7.0932   8.0039  10.6671  10.6988  10.7655

          k = 0.3750-0.1250 0.1250 (  1095 PWs)   bands (ev):

   -44.6250 -21.2904 -21.2541 -21.2305  -5.9243  -5.1353  -5.0670  -4.0198
    -3.9533  -3.9417  -3.8746  -3.7435   3.9242   6.8676   7.3628   7.8569
     8.4544   8.7816   9.3623   9.9401  10.0836  10.8707

          k = 0.3750-0.3750 0.1250 (  1087 PWs)   bands (ev):

   -44.6238 -21.2873 -21.2864 -21.2520  -5.7271  -4.9907  -4.9183  -3.9910
    -3.9489  -3.8922  -3.8046  -3.6648   3.5607   6.8300   6.8717   7.1900
     7.4947   8.6901   9.4864   9.5037  10.0438  10.7573

     highest occupied level (ev):    10.9057

!    total energy              =    -333.18274251 Ry
     estimated scf accuracy    <          5.7E-10 Ry

     The total energy is the sum of the following terms:
     one-electron contribution =     -76.57795826 Ry
     hartree contribution      =      66.28446251 Ry
     xc contribution           =     -49.65259989 Ry
     ewald contribution        =    -273.23664687 Ry

     convergence has been achieved in  10 iterations

     Forces acting on atoms (cartesian axes, Ry/au):

     atom    1 type  2   force =     0.00000000    0.00000000   -0.01269505
     atom    2 type  3   force =     0.00000000    0.00000000    0.01803809
     atom    3 type  1   force =     0.00000000    0.00000000   -0.00475880
     atom    4 type  1   force =     0.00000000    0.00000000   -0.00475880
     atom    5 type  1   force =     0.00000000    0.00000000    0.00417455

     Total force =     0.007920     Total SCF correction =     0.000009


     Computing stress (Cartesian axis) and pressure

          total   stress  (Ry/bohr**3)                   (kbar)     P=      -11.63
  -0.00009623   0.00000000   0.00000000          -14.16        0.00        0.00
   0.00000000  -0.00009623   0.00000000            0.00      -14.16        0.00
   0.00000000   0.00000000  -0.00004478            0.00        0.00       -6.59

     Energy error            =      7.8E-05 Ry
     Gradient error          =      4.8E-03 Ry/Bohr

     number of scf cycles    =   6
     number of bfgs steps    =   5

     energy             old  =    -333.1826645401 Ry
     energy             new  =    -333.1827425095 Ry

     CASE: energy            _new < energy            _old

     new trust radius        =       0.0198501700 bohr
     new conv_thr            =       0.0000000010 Ry


ATOMIC_POSITIONS (angstrom)
Pb               0.0000000000        0.0000000000        0.0000000000    0   0   0
Ti               1.9375000000        1.9375000000        1.8212500000    0   0   0
O                0.0000000000        1.9375000000        1.9105019936
O                1.9375000000        0.0000000000        1.9105019936
O                1.9375000000        1.9375000000       -0.0479232241


     Message from routine punch:
     Nothing written, as per user request (disk_io='none')
     NEW-OLD atomic charge density approx. for the potential

     total cpu time spent up to now is       38.6 secs

     Self-consistent Calculation

     iteration #  1     ecut=    30.00 Ry     beta= 0.70
     Davidson diagonalization with overlap
     ethr =  1.00E-06,  avg # of iterations =  5.7

     total cpu time spent up to now is       39.2 secs

     total energy              =    -333.18284008 Ry
     estimated scf accuracy    <       0.00008863 Ry

     iteration #  2     ecut=    30.00 Ry     beta= 0.70
     Davidson diagonalization with overlap
     ethr =  2.01E-07,  avg # of iterations =  3.3

     total cpu time spent up to now is       39.6 secs

     total energy              =    -333.18284977 Ry
     estimated scf accuracy    <       0.00001627 Ry

     iteration #  3     ecut=    30.00 Ry     beta= 0.70
     Davidson diagonalization with overlap
     ethr =  3.70E-08,  avg # of iterations =  5.0

     total cpu time spent up to now is       40.0 secs

     total energy              =    -333.18285290 Ry
     estimated scf accuracy    <       0.00001756 Ry

     iteration #  4     ecut=    30.00 Ry     beta= 0.70
     Davidson diagonalization with overlap
     ethr =  3.70E-08,  avg # of iterations =  4.5

     total cpu time spent up to now is       41.4 secs

     total energy              =    -333.18285637 Ry
     estimated scf accuracy    <       0.00000036 Ry

     iteration #  5     ecut=    30.00 Ry     beta= 0.70
     Davidson diagonalization with overlap
     ethr =  8.10E-10,  avg # of iterations =  6.0

     total cpu time spent up to now is       42.8 secs

     total energy              =    -333.18285655 Ry
     estimated scf accuracy    <       0.00000071 Ry

     iteration #  6     ecut=    30.00 Ry     beta= 0.70
     Davidson diagonalization with overlap
     ethr =  8.10E-10,  avg # of iterations =  4.2

     total cpu time spent up to now is       43.3 secs

     total energy              =    -333.18285661 Ry
     estimated scf accuracy    <       0.00000007 Ry

     iteration #  7     ecut=    30.00 Ry     beta= 0.70
     Davidson diagonalization with overlap
     ethr =  1.52E-10,  avg # of iterations =  4.7

     total cpu time spent up to now is       43.8 secs

     total energy              =    -333.18285664 Ry
     estimated scf accuracy    <          9.3E-09 Ry

     iteration #  8     ecut=    30.00 Ry     beta= 0.70
     Davidson diagonalization with overlap
     ethr =  2.11E-11,  avg # of iterations =  2.3

     total cpu time spent up to now is       44.4 secs

     total energy              =    -333.18285664 Ry
     estimated scf accuracy    <          5.7E-09 Ry

     iteration #  9     ecut=    30.00 Ry     beta= 0.70
     Davidson diagonalization with overlap
     ethr =  1.31E-11,  avg # of iterations =  4.5

     total cpu time spent up to now is       44.9 secs

     End of self-consistent calculation

          k = 0.1250 0.1250 0.1250 (  1090 PWs)   bands (ev):

   -44.6340 -21.2588 -21.2415 -21.2404  -6.3286  -5.2600  -5.2390  -3.9589
    -3.9559  -3.9431  -3.7754  -3.7716   4.6601   7.3067   7.3172   8.0912
     9.1058   9.1442   9.8725   9.8834  10.0100  10.1577

          k = 0.1250 0.1250 0.3750 (  1095 PWs)   bands (ev):

   -44.6328 -21.3169 -21.2393 -21.2383  -5.9079  -5.1173  -5.0961  -4.0193
    -3.9539  -3.9394  -3.8699  -3.7448   3.9193   6.8375   7.3066   7.8511
     8.4762   8.7204   9.4145   9.9385  10.1459  10.9008

          k = 0.1250 0.3750 0.3750 (  1087 PWs)   bands (ev):

   -44.6315 -21.3133 -21.2951 -21.2367  -5.6927  -5.0086  -4.9345  -3.9930
    -3.9488  -3.8950  -3.8046  -3.6489   3.5541   6.7606   6.9025   7.1939
     7.5053   8.7008   9.4398   9.5074  10.0628  10.7226

          k = 0.3750 0.3750 0.3750 (  1082 PWs)   bands (ev):

   -44.6302 -21.3108 -21.2927 -21.2925  -5.3029  -5.1353  -5.1196  -3.9048
    -3.9012  -3.6138  -3.5500  -3.5405   4.1705   5.9421   5.9586   6.7131
     7.0690   7.0799   8.0060  10.6732  10.6987  10.7650

          k = 0.3750-0.1250 0.1250 (  1095 PWs)   bands (ev):

   -44.6328 -21.2987 -21.2566 -21.2388  -5.9236  -5.1361  -5.0710  -4.0184
    -3.9519  -3.9402  -3.8723  -3.7422   3.9254   6.8617   7.3598   7.8570
     8.4558   8.7754   9.3695   9.9431  10.0923  10.8726

          k = 0.3750-0.3750 0.1250 (  1087 PWs)   bands (ev):

   -44.6315 -21.2956 -21.2947 -21.2544  -5.7216  -4.9945  -4.9229  -3.9899
    -3.9472  -3.8906  -3.8028  -3.6620   3.5590   6.8267   6.8659   7.1904
     7.4946   8.6894   9.4825   9.5025  10.0474  10.7526

     highest occupied level (ev):    10.9008

!    total energy              =    -333.18285664 Ry
     estimated scf accuracy    <          1.1E-10 Ry

     The total energy is the sum of the following terms:
     one-electron contribution =     -76.57906893 Ry
     hartree contribution      =      66.28294708 Ry
     xc contribution           =     -49.65165458 Ry
     ewald contribution        =    -273.23508021 Ry

     convergence has been achieved in   9 iterations

     Forces acting on atoms (cartesian axes, Ry/au):

     atom    1 type  2   force =     0.00000000    0.00000000   -0.01200756
     atom    2 type  3   force =     0.00000000    0.00000000    0.01670125
     atom    3 type  1   force =     0.00000000    0.00000000   -0.00490025
     atom    4 type  1   force =     0.00000000    0.00000000   -0.00490025
     atom    5 type  1   force =     0.00000000    0.00000000    0.00510682

     Total force =     0.008608     Total SCF correction =     0.000004


     Computing stress (Cartesian axis) and pressure

          total   stress  (Ry/bohr**3)                   (kbar)     P=      -12.20
  -0.00009488   0.00000000   0.00000000          -13.96        0.00        0.00
   0.00000000  -0.00009488   0.00000000            0.00      -13.96        0.00
   0.00000000   0.00000000  -0.00005903            0.00        0.00       -8.68

     Energy error            =      1.1E-04 Ry
     Gradient error          =      5.1E-03 Ry/Bohr

     number of scf cycles    =   7
     number of bfgs steps    =   6

     energy             old  =    -333.1827425095 Ry
     energy             new  =    -333.1828566366 Ry

     CASE: energy            _new < energy            _old

     new trust radius        =       0.0297752550 bohr
     new conv_thr            =       0.0000000011 Ry


ATOMIC_POSITIONS (angstrom)
Pb               0.0000000000        0.0000000000        0.0000000000    0   0   0
Ti               1.9375000000        1.9375000000        1.8212500000    0   0   0
O                0.0000000000        1.9375000000        1.8947456072
O                1.9375000000        0.0000000000        1.8947456072
O                1.9375000000        1.9375000000       -0.0602778647


     Message from routine punch:
     Nothing written, as per user request (disk_io='none')
     NEW-OLD atomic charge density approx. for the potential

     total cpu time spent up to now is       46.8 secs

     Self-consistent Calculation

     iteration #  1     ecut=    30.00 Ry     beta= 0.70
     Davidson diagonalization with overlap
     ethr =  1.00E-06,  avg # of iterations =  7.2

     total cpu time spent up to now is       47.3 secs

     total energy              =    -333.18299356 Ry
     estimated scf accuracy    <       0.00018519 Ry

     iteration #  2     ecut=    30.00 Ry     beta= 0.70
     Davidson diagonalization with overlap
     ethr =  4.21E-07,  avg # of iterations =  2.8

     total cpu time spent up to now is       47.8 secs

     total energy              =    -333.18301546 Ry
     estimated scf accuracy    <       0.00002194 Ry

     iteration #  3     ecut=    30.00 Ry     beta= 0.70
     Davidson diagonalization with overlap
     ethr =  4.99E-08,  avg # of iterations =  4.8

     total cpu time spent up to now is       48.2 secs

     total energy              =    -333.18301819 Ry
     estimated scf accuracy    <       0.00002184 Ry

     iteration #  4     ecut=    30.00 Ry     beta= 0.70
     Davidson diagonalization with overlap
     ethr =  4.96E-08,  avg # of iterations =  4.2

     total cpu time spent up to now is       48.6 secs

     total energy              =    -333.18302346 Ry
     estimated scf accuracy    <       0.00000144 Ry

     iteration #  5     ecut=    30.00 Ry     beta= 0.70
     Davidson diagonalization with overlap
     ethr =  3.27E-09,  avg # of iterations =  4.5

     total cpu time spent up to now is       49.1 secs

     total energy              =    -333.18302363 Ry
     estimated scf accuracy    <       0.00000075 Ry

     iteration #  6     ecut=    30.00 Ry     beta= 0.70
     Davidson diagonalization with overlap
     ethr =  1.72E-09,  avg # of iterations =  4.3

     total cpu time spent up to now is       49.5 secs

     total energy              =    -333.18302378 Ry
     estimated scf accuracy    <       0.00000004 Ry

     iteration #  7     ecut=    30.00 Ry     beta= 0.70
     Davidson diagonalization with overlap
     ethr =  9.03E-11,  avg # of iterations =  4.3

     total cpu time spent up to now is       49.9 secs

     total energy              =    -333.18302379 Ry
     estimated scf accuracy    <       0.00000001 Ry

     iteration #  8     ecut=    30.00 Ry     beta= 0.70
     Davidson diagonalization with overlap
     ethr =  3.20E-11,  avg # of iterations =  4.5

     total cpu time spent up to now is       50.3 secs

     End of self-consistent calculation

          k = 0.1250 0.1250 0.1250 (  1090 PWs)   bands (ev):

   -44.6436 -21.2621 -21.2517 -21.2507  -6.3305  -5.2578  -5.2476  -3.9563
    -3.9539  -3.9409  -3.7734  -3.7691   4.6622   7.3085   7.3153   8.0939
     9.1184   9.1462   9.8908   9.9063   9.9979  10.1434

          k = 0.1250 0.1250 0.3750 (  1095 PWs)   bands (ev):

   -44.6424 -21.3200 -21.2495 -21.2485  -5.9148  -5.1272  -5.0895  -4.0162
    -3.9510  -3.9372  -3.8672  -3.7424   3.9261   6.8403   7.3221   7.8507
     8.4657   8.7313   9.4074   9.9450  10.1356  10.8944

          k = 0.1250 0.3750 0.3750 (  1087 PWs)   bands (ev):

   -44.6411 -21.3165 -21.3054 -21.2469  -5.6995  -5.0065  -4.9360  -3.9902
    -3.9463  -3.8922  -3.8019  -3.6473   3.5572   6.7769   6.8840   7.1915
     7.5023   8.6940   9.4434   9.5033  10.0640  10.7278

          k = 0.3750 0.3750 0.3750 (  1082 PWs)   bands (ev):

   -44.6398 -21.3139 -21.3030 -21.3028  -5.3028  -5.1329  -5.1250  -3.9019
    -3.8992  -3.6111  -3.5469  -3.5391   4.1690   5.9465   5.9537   6.7160
     7.0576   7.0623   8.0100  10.6805  10.6964  10.7650

          k = 0.3750-0.1250 0.1250 (  1095 PWs)   bands (ev):

   -44.6424 -21.3090 -21.2599 -21.2490  -5.9232  -5.1377  -5.0769  -4.0162
    -3.9495  -3.9378  -3.8683  -3.7398   3.9268   6.8536   7.3551   7.8570
     8.4571   8.7669   9.3779   9.9460  10.1029  10.8753

          k = 0.3750-0.3750 0.1250 (  1087 PWs)   bands (ev):

   -44.6411 -21.3059 -21.3050 -21.2577  -5.7144  -5.0007  -4.9303  -3.9880
    -3.9443  -3.8874  -3.7995  -3.6580   3.5560   6.8220   6.8579   7.1902
     7.4942   8.6887   9.4769   9.5009  10.0526  10.7454

     highest occupied level (ev):    10.8944

!    total energy              =    -333.18302379 Ry
     estimated scf accuracy    <          1.1E-09 Ry

     The total energy is the sum of the following terms:
     one-electron contribution =     -76.59740742 Ry
     hartree contribution      =      66.28953541 Ry
     xc contribution           =     -49.65084831 Ry
     ewald contribution        =    -273.22430347 Ry

     convergence has been achieved in   8 iterations

     Forces acting on atoms (cartesian axes, Ry/au):

     atom    1 type  2   force =     0.00000000    0.00000000   -0.01100090
     atom    2 type  3   force =     0.00000000    0.00000000    0.01528804
     atom    3 type  1   force =     0.00000000    0.00000000   -0.00493570
     atom    4 type  1   force =     0.00000000    0.00000000   -0.00493570
     atom    5 type  1   force =     0.00000000    0.00000000    0.00558425

     Total force =     0.008939     Total SCF correction =     0.000012


     Computing stress (Cartesian axis) and pressure

          total   stress  (Ry/bohr**3)                   (kbar)     P=      -12.70
  -0.00009231   0.00000000   0.00000000          -13.58        0.00        0.00
   0.00000000  -0.00009231   0.00000000            0.00      -13.58        0.00
   0.00000000   0.00000000  -0.00007444            0.00        0.00      -10.95

     Energy error            =      1.7E-04 Ry
     Gradient error          =      5.6E-03 Ry/Bohr

     number of scf cycles    =   8
     number of bfgs steps    =   7

     energy             old  =    -333.1828566366 Ry
     energy             new  =    -333.1830237943 Ry

     CASE: energy            _new < energy            _old

     new trust radius        =       0.0446628825 bohr
     new conv_thr            =       0.0000000017 Ry


ATOMIC_POSITIONS (angstrom)
Pb               0.0000000000        0.0000000000        0.0000000000    0   0   0
Ti               1.9375000000        1.9375000000        1.8212500000    0   0   0
O                0.0000000000        1.9375000000        1.8711110276
O                1.9375000000        0.0000000000        1.8711110276
O                1.9375000000        1.9375000000       -0.0781809297


     Message from routine punch:
     Nothing written, as per user request (disk_io='none')
     NEW-OLD atomic charge density approx. for the potential

     total cpu time spent up to now is       52.5 secs

     Self-consistent Calculation

     iteration #  1     ecut=    30.00 Ry     beta= 0.70
     Davidson diagonalization with overlap
     ethr =  1.00E-06,  avg # of iterations =  8.3

     total cpu time spent up to now is       53.0 secs

     total energy              =    -333.18321156 Ry
     estimated scf accuracy    <       0.00040298 Ry

     iteration #  2     ecut=    30.00 Ry     beta= 0.70
     Davidson diagonalization with overlap
     ethr =  9.16E-07,  avg # of iterations =  2.3

     total cpu time spent up to now is       53.4 secs

     total energy              =    -333.18326504 Ry
     estimated scf accuracy    <       0.00003051 Ry

     iteration #  3     ecut=    30.00 Ry     beta= 0.70
     Davidson diagonalization with overlap
     ethr =  6.93E-08,  avg # of iterations =  4.2

     total cpu time spent up to now is       53.8 secs

     total energy              =    -333.18326933 Ry
     estimated scf accuracy    <       0.00001571 Ry

     iteration #  4     ecut=    30.00 Ry     beta= 0.70
     Davidson diagonalization with overlap
     ethr =  3.57E-08,  avg # of iterations =  4.8

     total cpu time spent up to now is       54.2 secs

     total energy              =    -333.18327394 Ry
     estimated scf accuracy    <       0.00000497 Ry

     iteration #  5     ecut=    30.00 Ry     beta= 0.70
     Davidson diagonalization with overlap
     ethr =  1.13E-08,  avg # of iterations =  3.8

     total cpu time spent up to now is       54.6 secs

     total energy              =    -333.18327484 Ry
     estimated scf accuracy    <       0.00000015 Ry

     iteration #  6     ecut=    30.00 Ry     beta= 0.70
     Davidson diagonalization with overlap
     ethr =  3.32E-10,  avg # of iterations =  5.8

     total cpu time spent up to now is       55.1 secs

     total energy              =    -333.18327493 Ry
     estimated scf accuracy    <       0.00000040 Ry

     iteration #  7     ecut=    30.00 Ry     beta= 0.70
     Davidson diagonalization with overlap
     ethr =  3.32E-10,  avg # of iterations =  4.3

     total cpu time spent up to now is       55.5 secs

     total energy              =    -333.18327496 Ry
     estimated scf accuracy    <       0.00000004 Ry

     iteration #  8     ecut=    30.00 Ry     beta= 0.70
     Davidson diagonalization with overlap
     ethr =  9.61E-11,  avg # of iterations =  4.0

     total cpu time spent up to now is       55.9 secs

     End of self-consistent calculation

          k = 0.1250 0.1250 0.1250 (  1090 PWs)   bands (ev):

   -44.6554 -21.2669 -21.2641 -21.2633  -6.3344  -5.2607  -5.2547  -3.9518
    -3.9502  -3.9367  -3.7700  -3.7635   4.6651   7.3090   7.3129   8.0971
     9.1326   9.1469   9.8985   9.9493   9.9817  10.1224

          k = 0.1250 0.1250 0.3750 (  1095 PWs)   bands (ev):

   -44.6542 -21.3245 -21.2622 -21.2612  -5.9257  -5.1423  -5.0805  -4.0107
    -3.9462  -3.9333  -3.8615  -3.7383   3.9350   6.8443   7.3387   7.8476
     8.4530   8.7444   9.3967   9.9517  10.1206  10.8872

          k = 0.1250 0.3750 0.3750 (  1087 PWs)   bands (ev):

   -44.6529 -21.3210 -21.3181 -21.2596  -5.7099  -5.0077  -4.9367  -3.9854
    -3.9420  -3.8873  -3.7970  -3.6431   3.5617   6.7978   6.8581   7.1869
     7.4982   8.6840   9.4432   9.5003  10.0664  10.7335

          k = 0.3750 0.3750 0.3750 (  1082 PWs)   bands (ev):

   -44.6516 -21.3184 -21.3157 -21.3155  -5.3046  -5.1341  -5.1293  -3.8971
    -3.8954  -3.6071  -3.5414  -3.5355   4.1654   5.9463   5.9520   6.7179
     7.0407   7.0440   8.0187  10.6886  10.6894  10.7658

          k = 0.3750-0.1250 0.1250 (  1095 PWs)   bands (ev):

   -44.6542 -21.3218 -21.2645 -21.2616  -5.9241  -5.1411  -5.0863  -4.0123
    -3.9453  -3.9333  -3.8608  -3.7350   3.9287   6.8423   7.3480   7.8565
     8.4572   8.7561   9.3869   9.9479  10.1138  10.8797

          k = 0.3750-0.3750 0.1250 (  1087 PWs)   bands (ev):

   -44.6529 -21.3186 -21.3177 -21.2623  -5.7053  -5.0113  -4.9431  -3.9845
    -3.9388  -3.8807  -3.7928  -3.6519   3.5508   6.8146   6.8469   7.1894
     7.4943   8.6886   9.4697   9.4984  10.0606  10.7342

     highest occupied level (ev):    10.8872

!    total energy              =    -333.18327497 Ry
     estimated scf accuracy    <          1.1E-09 Ry

     The total energy is the sum of the following terms:
     one-electron contribution =     -76.64791666 Ry
     hartree contribution      =      66.31175473 Ry
     xc contribution           =     -49.65048088 Ry
     ewald contribution        =    -273.19663216 Ry

     convergence has been achieved in   8 iterations

     Forces acting on atoms (cartesian axes, Ry/au):

     atom    1 type  2   force =     0.00000000    0.00000000   -0.00953206
     atom    2 type  3   force =     0.00000000    0.00000000    0.01393852
     atom    3 type  1   force =     0.00000000    0.00000000   -0.00490693
     atom    4 type  1   force =     0.00000000    0.00000000   -0.00490693
     atom    5 type  1   force =     0.00000000    0.00000000    0.00540740

     Total force =     0.008797     Total SCF correction =     0.000005


     Computing stress (Cartesian axis) and pressure

          total   stress  (Ry/bohr**3)                   (kbar)     P=      -12.85
  -0.00008707   0.00000000   0.00000000          -12.81        0.00        0.00
   0.00000000  -0.00008707   0.00000000            0.00      -12.81        0.00
   0.00000000   0.00000000  -0.00008783            0.00        0.00      -12.92

     Energy error            =      2.5E-04 Ry
     Gradient error          =      5.4E-03 Ry/Bohr

     number of scf cycles    =   9
     number of bfgs steps    =   8

     energy             old  =    -333.1830237943 Ry
     energy             new  =    -333.1832749665 Ry

     CASE: energy            _new < energy            _old


     WARNING: bfgs curvature condition failed, Theta= 0.683
     uphill step: resetting bfgs history

     new trust radius        =       0.0054073961 bohr
     new conv_thr            =       0.0000000025 Ry


ATOMIC_POSITIONS (angstrom)
Pb               0.0000000000        0.0000000000        0.0000000000    0   0   0
Ti               1.9375000000        1.9375000000        1.8212500000    0   0   0
O                0.0000000000        1.9375000000        1.8685143928
O                1.9375000000        0.0000000000        1.8685143928
O                1.9375000000        1.9375000000       -0.0753194590


     Message from routine punch:
     Nothing written, as per user request (disk_io='none')
     NEW-OLD atomic charge density approx. for the potential

     total cpu time spent up to now is       57.7 secs

     Self-consistent Calculation

     iteration #  1     ecut=    30.00 Ry     beta= 0.70
     Davidson diagonalization with overlap
     ethr =  1.00E-06,  avg # of iterations =  3.0

     Threshold (ethr) on eigenvalues was too large:
     Diagonalizing with lowered threshold

     Davidson diagonalization with overlap
     ethr =  1.60E-08,  avg # of iterations =  4.5

     total cpu time spent up to now is       58.4 secs

     total energy              =    -333.18333700 Ry
     estimated scf accuracy    <       0.00001007 Ry

     iteration #  2     ecut=    30.00 Ry     beta= 0.70
     Davidson diagonalization with overlap
     ethr =  2.29E-08,  avg # of iterations =  2.2

     total cpu time spent up to now is       58.9 secs

     total energy              =    -333.18333957 Ry
     estimated scf accuracy    <       0.00000115 Ry

     iteration #  3     ecut=    30.00 Ry     beta= 0.70
     Davidson diagonalization with overlap
     ethr =  2.62E-09,  avg # of iterations =  2.0

     total cpu time spent up to now is       59.2 secs

     total energy              =    -333.18333979 Ry
     estimated scf accuracy    <       0.00000003 Ry

     iteration #  4     ecut=    30.00 Ry     beta= 0.70
     Davidson diagonalization with overlap
     ethr =  6.74E-11,  avg # of iterations =  5.2

     total cpu time spent up to now is       59.8 secs

     total energy              =    -333.18333981 Ry
     estimated scf accuracy    <       0.00000002 Ry

     iteration #  5     ecut=    30.00 Ry     beta= 0.70
     Davidson diagonalization with overlap
     ethr =  5.39E-11,  avg # of iterations =  4.2

     total cpu time spent up to now is       60.2 secs

     total energy              =    -333.18333981 Ry
     estimated scf accuracy    <          4.4E-09 Ry

     iteration #  6     ecut=    30.00 Ry     beta= 0.70
     Davidson diagonalization with overlap
     ethr =  1.01E-11,  avg # of iterations =  4.2

     total cpu time spent up to now is       61.0 secs

     End of self-consistent calculation

          k = 0.1250 0.1250 0.1250 (  1090 PWs)   bands (ev):

   -44.6538 -21.2661 -21.2627 -21.2618  -6.3348  -5.2614  -5.2555  -3.9517
    -3.9501  -3.9366  -3.7700  -3.7631   4.6652   7.3086   7.3138   8.0968
     9.1317   9.1459   9.8984   9.9483   9.9809  10.1212

          k = 0.1250 0.1250 0.3750 (  1095 PWs)   bands (ev):

   -44.6526 -21.3238 -21.2607 -21.2597  -5.9263  -5.1431  -5.0812  -4.0105
    -3.9460  -3.9331  -3.8611  -3.7382   3.9351   6.8445   7.3385   7.8482
     8.4520   8.7429   9.3958   9.9517  10.1199  10.8868

          k = 0.1250 0.3750 0.3750 (  1087 PWs)   bands (ev):

   -44.6513 -21.3203 -21.3166 -21.2581  -5.7104  -5.0084  -4.9373  -3.9853
    -3.9419  -3.8871  -3.7967  -3.6428   3.5615   6.7978   6.8578   7.1862
     7.4981   8.6836   9.4434   9.4980  10.0662  10.7327

          k = 0.3750 0.3750 0.3750 (  1082 PWs)   bands (ev):

   -44.6500 -21.3178 -21.3143 -21.3140  -5.3050  -5.1346  -5.1300  -3.8970
    -3.8952  -3.6069  -3.5412  -3.5351   4.1644   5.9458   5.9512   6.7182
     7.0399   7.0430   8.0192  10.6877  10.6886  10.7652

          k = 0.3750-0.1250 0.1250 (  1095 PWs)   bands (ev):

   -44.6526 -21.3203 -21.2638 -21.2601  -5.9245  -5.1420  -5.0867  -4.0122
    -3.9452  -3.9331  -3.8605  -3.7347   3.9282   6.8421   7.3474   7.8566
     8.4574   8.7555   9.3854   9.9469  10.1132  10.8788

          k = 0.3750-0.3750 0.1250 (  1087 PWs)   bands (ev):

   -44.6513 -21.3172 -21.3162 -21.2616  -5.7059  -5.0120  -4.9438  -3.9844
    -3.9385  -3.8801  -3.7922  -3.6518   3.5501   6.8145   6.8463   7.1877
     7.4922   8.6885   9.4691   9.4988  10.0608  10.7336

     highest occupied level (ev):    10.8868

!    total energy              =    -333.18333981 Ry
     estimated scf accuracy    <          4.1E-10 Ry

     The total energy is the sum of the following terms:
     one-electron contribution =     -76.67556757 Ry
     hartree contribution      =      66.32581822 Ry
     xc contribution           =     -49.65113210 Ry
     ewald contribution        =    -273.18245837 Ry

     convergence has been achieved in   6 iterations

     Forces acting on atoms (cartesian axes, Ry/au):

     atom    1 type  2   force =     0.00000000    0.00000000   -0.00921406
     atom    2 type  3   force =     0.00000000    0.00000000    0.01410401
     atom    3 type  1   force =     0.00000000    0.00000000   -0.00399425
     atom    4 type  1   force =     0.00000000    0.00000000   -0.00399425
     atom    5 type  1   force =     0.00000000    0.00000000    0.00309857

     Total force =     0.006443     Total SCF correction =     0.000042


     Computing stress (Cartesian axis) and pressure

          total   stress  (Ry/bohr**3)                   (kbar)     P=      -12.58
  -0.00008629   0.00000000   0.00000000          -12.69        0.00        0.00
   0.00000000  -0.00008629   0.00000000            0.00      -12.69        0.00
   0.00000000   0.00000000  -0.00008404            0.00        0.00      -12.36

     Energy error            =      6.5E-05 Ry
     Gradient error          =      4.0E-03 Ry/Bohr

     number of scf cycles    =  10
     number of bfgs steps    =   9

     energy             old  =    -333.1832749665 Ry
     energy             new  =    -333.1833398110 Ry

     CASE: energy            _new < energy            _old

     new trust radius        =       0.0059481357 bohr
     new conv_thr            =       0.0000000010 Ry


ATOMIC_POSITIONS (angstrom)
Pb               0.0000000000        0.0000000000        0.0000000000    0   0   0
Ti               1.9375000000        1.9375000000        1.8212500000    0   0   0
O                0.0000000000        1.9375000000        1.8653667750
O                1.9375000000        0.0000000000        1.8653667750
O                1.9375000000        1.9375000000       -0.0728190662


     Message from routine punch:
     Nothing written, as per user request (disk_io='none')
     NEW-OLD atomic charge density approx. for the potential

     total cpu time spent up to now is       62.9 secs

     Self-consistent Calculation

     iteration #  1     ecut=    30.00 Ry     beta= 0.70
     Davidson diagonalization with overlap
     ethr =  1.00E-06,  avg # of iterations =  3.0

     Threshold (ethr) on eigenvalues was too large:
     Diagonalizing with lowered threshold

     Davidson diagonalization with overlap
     ethr =  1.80E-08,  avg # of iterations =  4.3

     total cpu time spent up to now is       63.7 secs

     total energy              =    -333.18338862 Ry
     estimated scf accuracy    <       0.00001097 Ry

     iteration #  2     ecut=    30.00 Ry     beta= 0.70
     Davidson diagonalization with overlap
     ethr =  2.49E-08,  avg # of iterations =  2.2

     total cpu time spent up to now is       64.0 secs

     total energy              =    -333.18339136 Ry
     estimated scf accuracy    <       0.00000127 Ry

     iteration #  3     ecut=    30.00 Ry     beta= 0.70
     Davidson diagonalization with overlap
     ethr =  2.89E-09,  avg # of iterations =  2.0

     total cpu time spent up to now is       64.4 secs

     total energy              =    -333.18339161 Ry
     estimated scf accuracy    <       0.00000003 Ry

     iteration #  4     ecut=    30.00 Ry     beta= 0.70
     Davidson diagonalization with overlap
     ethr =  6.24E-11,  avg # of iterations =  5.3

     total cpu time spent up to now is       65.0 secs

     total energy              =    -333.18339163 Ry
     estimated scf accuracy    <       0.00000002 Ry

     iteration #  5     ecut=    30.00 Ry     beta= 0.70
     Davidson diagonalization with overlap
     ethr =  5.53E-11,  avg # of iterations =  4.2

     total cpu time spent up to now is       65.4 secs

     total energy              =    -333.18339163 Ry
     estimated scf accuracy    <          5.2E-09 Ry

     iteration #  6     ecut=    30.00 Ry     beta= 0.70
     Davidson diagonalization with overlap
     ethr =  1.17E-11,  avg # of iterations =  3.7

     total cpu time spent up to now is       65.8 secs

     End of self-consistent calculation

          k = 0.1250 0.1250 0.1250 (  1090 PWs)   bands (ev):

   -44.6527 -21.2658 -21.2617 -21.2608  -6.3353  -5.2624  -5.2561  -3.9515
    -3.9499  -3.9363  -3.7698  -3.7624   4.6654   7.3080   7.3145   8.0965
     9.1312   9.1449   9.8985   9.9481   9.9798  10.1197

          k = 0.1250 0.1250 0.3750 (  1095 PWs)   bands (ev):

   -44.6515 -21.3235 -21.2597 -21.2587  -5.9271  -5.1443  -5.0816  -4.0102
    -3.9458  -3.9329  -3.8604  -3.7379   3.9355   6.8446   7.3383   7.8487
     8.4510   8.7416   9.3947   9.9518  10.1188  10.8864

          k = 0.1250 0.3750 0.3750 (  1087 PWs)   bands (ev):

   -44.6502 -21.3200 -21.3157 -21.2571  -5.7111  -5.0091  -4.9379  -3.9850
    -3.9416  -3.8867  -3.7963  -3.6422   3.5614   6.7982   6.8569   7.1854
     7.4979   8.6830   9.4437   9.4957  10.0661  10.7321

          k = 0.3750 0.3750 0.3750 (  1082 PWs)   bands (ev):

   -44.6489 -21.3174 -21.3133 -21.3130  -5.3054  -5.1352  -5.1305  -3.8967
    -3.8950  -3.6065  -3.5408  -3.5344   4.1632   5.9451   5.9505   6.7186
     7.0387   7.0418   8.0200  10.6870  10.6876  10.7647

          k = 0.3750-0.1250 0.1250 (  1095 PWs)   bands (ev):

   -44.6515 -21.3193 -21.2635 -21.2591  -5.9250  -5.1430  -5.0874  -4.0120
    -3.9449  -3.9327  -3.8599  -3.7342   3.9279   6.8416   7.3466   7.8565
     8.4575   8.7547   9.3842   9.9461  10.1128  10.8781

          k = 0.3750-0.3750 0.1250 (  1087 PWs)   bands (ev):

   -44.6502 -21.3162 -21.3153 -21.2613  -5.7062  -5.0129  -4.9448  -3.9841
    -3.9380  -3.8793  -3.7914  -3.6515   3.5493   6.8142   6.8455   7.1860
     7.4901   8.6884   9.4685   9.4993  10.0613  10.7328

     highest occupied level (ev):    10.8864

!    total energy              =    -333.18339163 Ry
     estimated scf accuracy    <          5.1E-10 Ry

     The total energy is the sum of the following terms:
     one-electron contribution =     -76.70615668 Ry
     hartree contribution      =      66.34140424 Ry
     xc contribution           =     -49.65181981 Ry
     ewald contribution        =    -273.16681939 Ry

     convergence has been achieved in   6 iterations

     Forces acting on atoms (cartesian axes, Ry/au):

     atom    1 type  2   force =     0.00000000    0.00000000   -0.00887168
     atom    2 type  3   force =     0.00000000    0.00000000    0.01426858
     atom    3 type  1   force =     0.00000000    0.00000000   -0.00306911
     atom    4 type  1   force =     0.00000000    0.00000000   -0.00306911
[...]

   -44.6722 -21.3557 -21.2805 -21.2796  -6.0676  -5.2934  -5.0412  -3.9138
    -3.8567  -3.8424  -3.7005  -3.6645   3.9811   6.8399   7.1236   7.6899
     8.5551   8.6760   9.3464   9.8416  10.0041  10.9542

          k = 0.1250 0.3750 0.3750 (  1087 PWs)   bands (ev):

   -44.6709 -21.3521 -21.3356 -21.2779  -5.8311  -5.1640  -4.9449  -3.8961
    -3.8518  -3.7944  -3.6877  -3.5056   3.6202   6.6003   6.9294   7.1218
     7.4278   8.6213   9.3643   9.4562  10.1656  10.6732

          k = 0.3750 0.3750 0.3750 (  1082 PWs)   bands (ev):

   -44.6696 -21.3496 -21.3331 -21.3331  -5.4212  -5.2756  -5.1235  -3.8069
    -3.8054  -3.5438  -3.4403  -3.4158   4.0643   5.8914   5.9548   6.6134
     7.1034   7.1055   8.2488  10.5594  10.6284  10.7103

          k = 0.3750-0.1250 0.1250 (  1095 PWs)   bands (ev):

   -44.6722 -21.3395 -21.2956 -21.2800  -6.0152  -5.2567  -5.1769  -3.9269
    -3.8611  -3.8381  -3.7128  -3.6092   3.9394   6.7937   7.3012   7.8037
     8.3622   8.7809   9.3333   9.8472   9.9766  10.9347

          k = 0.3750-0.3750 0.1250 (  1087 PWs)   bands (ev):

   -44.6709 -21.3364 -21.3354 -21.2932  -5.7179  -5.1714  -5.1426  -3.8970
    -3.8302  -3.7272  -3.6251  -3.5672   3.4629   6.7356   6.8116   7.2001
     7.5629   8.7196   9.4772   9.4863  10.1399  10.5988

     highest occupied level (ev):    10.9542

!    total energy              =    -333.18553393 Ry
     estimated scf accuracy    <          2.2E-09 Ry

     The total energy is the sum of the following terms:
     one-electron contribution =     -77.97752269 Ry
     hartree contribution      =      66.97795303 Ry
     xc contribution           =     -49.67732520 Ry
     ewald contribution        =    -272.50863908 Ry

     convergence has been achieved in   7 iterations

     Forces acting on atoms (cartesian axes, Ry/au):

     atom    1 type  2   force =     0.00000000    0.00000000   -0.00191962
     atom    2 type  3   force =     0.00000000    0.00000000    0.00878974
     atom    3 type  1   force =     0.00000000    0.00000000    0.00440536
     atom    4 type  1   force =     0.00000000    0.00000000    0.00440536
     atom    5 type  1   force =     0.00000000    0.00000000   -0.01568085

     Total force =     0.016873     Total SCF correction =     0.000089


     Computing stress (Cartesian axis) and pressure

          total   stress  (Ry/bohr**3)                   (kbar)     P=       -0.57
  -0.00004256   0.00000000   0.00000000           -6.26        0.00        0.00
   0.00000000  -0.00004256   0.00000000            0.00       -6.26        0.00
   0.00000000   0.00000000   0.00007349            0.00        0.00       10.81

     Energy error            =      3.6E-04 Ry
     Gradient error          =      1.6E-02 Ry/Bohr

     number of scf cycles    =  23
     number of bfgs steps    =  22

     energy             old  =    -333.1851774613 Ry
     energy             new  =    -333.1855339340 Ry

     CASE: energy            _new < energy            _old

     new trust radius        =       0.0308730948 bohr
     new conv_thr            =       0.0000000036 Ry


ATOMIC_POSITIONS (angstrom)
Pb               0.0000000000        0.0000000000        0.0000000000    0   0   0
Ti               1.9375000000        1.9375000000        1.8212500000    0   0   0
O                0.0000000000        1.9375000000        1.6608202836
O                1.9375000000        0.0000000000        1.6608202836
O                1.9375000000        1.9375000000       -0.2264229589


     Message from routine punch:
     Nothing written, as per user request (disk_io='none')
     NEW-OLD atomic charge density approx. for the potential

     total cpu time spent up to now is      151.6 secs

     Self-consistent Calculation

     iteration #  1     ecut=    30.00 Ry     beta= 0.70
     Davidson diagonalization with overlap
     ethr =  1.00E-06,  avg # of iterations =  5.3

     total cpu time spent up to now is      152.2 secs

     total energy              =    -333.18581710 Ry
     estimated scf accuracy    <       0.00025268 Ry

     iteration #  2     ecut=    30.00 Ry     beta= 0.70
     Davidson diagonalization with overlap
     ethr =  5.74E-07,  avg # of iterations =  4.3

     total cpu time spent up to now is      152.7 secs

     total energy              =    -333.18585533 Ry
     estimated scf accuracy    <       0.00015355 Ry

     iteration #  3     ecut=    30.00 Ry     beta= 0.70
     Davidson diagonalization with overlap
     ethr =  3.49E-07,  avg # of iterations =  4.5

     total cpu time spent up to now is      153.2 secs

     total energy              =    -333.18588956 Ry
     estimated scf accuracy    <       0.00004559 Ry

     iteration #  4     ecut=    30.00 Ry     beta= 0.70
     Davidson diagonalization with overlap
     ethr =  1.04E-07,  avg # of iterations =  4.0

     total cpu time spent up to now is      153.6 secs

     total energy              =    -333.18589737 Ry
     estimated scf accuracy    <       0.00000075 Ry

     iteration #  5     ecut=    30.00 Ry     beta= 0.70
     Davidson diagonalization with overlap
     ethr =  1.71E-09,  avg # of iterations =  6.7

     total cpu time spent up to now is      154.1 secs

     total energy              =    -333.18589844 Ry
     estimated scf accuracy    <       0.00000186 Ry

     iteration #  6     ecut=    30.00 Ry     beta= 0.70
     Davidson diagonalization with overlap
     ethr =  1.71E-09,  avg # of iterations =  3.7

     total cpu time spent up to now is      154.5 secs

     total energy              =    -333.18589836 Ry
     estimated scf accuracy    <       0.00000059 Ry

     iteration #  7     ecut=    30.00 Ry     beta= 0.70
     Davidson diagonalization with overlap
     ethr =  1.35E-09,  avg # of iterations =  4.8

     total cpu time spent up to now is      154.9 secs

     total energy              =    -333.18589850 Ry
     estimated scf accuracy    <          9.4E-09 Ry

     iteration #  8     ecut=    30.00 Ry     beta= 0.70
     Davidson diagonalization with overlap
     ethr =  2.13E-11,  avg # of iterations =  5.7

     total cpu time spent up to now is      155.4 secs

     total energy              =    -333.18589849 Ry
     estimated scf accuracy    <       0.00000004 Ry

     iteration #  9     ecut=    30.00 Ry     beta= 0.70
     Davidson diagonalization with overlap
     ethr =  2.13E-11,  avg # of iterations =  5.8

     total cpu time spent up to now is      156.2 secs

     End of self-consistent calculation

          k = 0.1250 0.1250 0.1250 (  1090 PWs)   bands (ev):

   -44.6485 -21.2874 -21.2582 -21.2573  -6.4271  -5.3801  -5.2525  -3.8804
    -3.8789  -3.8543  -3.7118  -3.6203   4.6872   7.1999   7.3005   8.0740
     9.0473   9.0690   9.6664   9.7732   9.9342  10.2504

          k = 0.1250 0.1250 0.3750 (  1095 PWs)   bands (ev):

   -44.6473 -21.3453 -21.2560 -21.2551  -6.0535  -5.2830  -5.0527  -3.9232
    -3.8655  -3.8527  -3.7131  -3.6752   3.9665   6.8432   7.1404   7.7122
     8.5335   8.6649   9.3356   9.8437  10.0141  10.9480

          k = 0.1250 0.3750 0.3750 (  1087 PWs)   bands (ev):

   -44.6460 -21.3417 -21.3115 -21.2535  -5.8200  -5.1515  -4.9543  -3.9054
    -3.8614  -3.8049  -3.6982  -3.5153   3.6127   6.5943   6.9285   7.1326
     7.4333   8.6273   9.3679   9.4349  10.1534  10.6663

          k = 0.3750 0.3750 0.3750 (  1082 PWs)   bands (ev):

   -44.6447 -21.3391 -21.3091 -21.3089  -5.4100  -5.2649  -5.1303  -3.8170
    -3.8140  -3.5554  -3.4508  -3.4243   4.0678   5.8893   5.9493   6.6218
     7.0991   7.1009   8.2328  10.5695  10.6153  10.7001

          k = 0.3750-0.1250 0.1250 (  1095 PWs)   bands (ev):

   -44.6473 -21.3153 -21.2850 -21.2556  -6.0071  -5.2479  -5.1799  -3.9357
    -3.8697  -3.8493  -3.7230  -3.6202   3.9378   6.7969   7.2982   7.8152
     8.3624   8.7754   9.3100   9.8463   9.9678  10.9262

          k = 0.3750-0.3750 0.1250 (  1087 PWs)   bands (ev):

   -44.6460 -21.3122 -21.3112 -21.2826  -5.7195  -5.1632  -5.1287  -3.9054
    -3.8404  -3.7389  -3.6372  -3.5800   3.4673   6.7422   6.8206   7.1880
     7.5476   8.7156   9.4638   9.4742  10.1294  10.6078

     highest occupied level (ev):    10.9480

!    total energy              =    -333.18589850 Ry
     estimated scf accuracy    <          2.3E-10 Ry

     The total energy is the sum of the following terms:
     one-electron contribution =     -78.00649799 Ry
     hartree contribution      =      66.99659160 Ry
     xc contribution           =     -49.68160871 Ry
     ewald contribution        =    -272.49438340 Ry

     convergence has been achieved in   9 iterations

     Forces acting on atoms (cartesian axes, Ry/au):

     atom    1 type  2   force =     0.00000000    0.00000000   -0.00203939
     atom    2 type  3   force =     0.00000000    0.00000000    0.00535830
     atom    3 type  1   force =     0.00000000    0.00000000    0.00001540
     atom    4 type  1   force =     0.00000000    0.00000000    0.00001540
     atom    5 type  1   force =     0.00000000    0.00000000   -0.00334971

     Total force =     0.003350     Total SCF correction =     0.000010


     Computing stress (Cartesian axis) and pressure

          total   stress  (Ry/bohr**3)                   (kbar)     P=        2.39
  -0.00003495   0.00000000   0.00000000           -5.14        0.00        0.00
   0.00000000  -0.00003495   0.00000000            0.00       -5.14        0.00
   0.00000000   0.00000000   0.00011862            0.00        0.00       17.45

     Energy error            =      3.6E-04 Ry
     Gradient error          =      3.3E-03 Ry/Bohr

     number of scf cycles    =  24
     number of bfgs steps    =  23

     energy             old  =    -333.1855339340 Ry
     energy             new  =    -333.1858985015 Ry

     CASE: energy            _new < energy            _old

     new trust radius        =       0.0213635488 bohr
     new conv_thr            =       0.0000000033 Ry


ATOMIC_POSITIONS (angstrom)
Pb               0.0000000000        0.0000000000        0.0000000000    0   0   0
Ti               1.9375000000        1.9375000000        1.8212500000    0   0   0
O                0.0000000000        1.9375000000        1.6512034716
O                1.9375000000        0.0000000000        1.6512034716
O                1.9375000000        1.9375000000       -0.2377280621


     Message from routine punch:
     Nothing written, as per user request (disk_io='none')
     NEW-OLD atomic charge density approx. for the potential

     total cpu time spent up to now is      158.4 secs

     Self-consistent Calculation

     iteration #  1     ecut=    30.00 Ry     beta= 0.70
     Davidson diagonalization with overlap
     ethr =  1.00E-06,  avg # of iterations =  6.2

     total cpu time spent up to now is      159.2 secs

     total energy              =    -333.18591490 Ry
     estimated scf accuracy    <       0.00011410 Ry

     iteration #  2     ecut=    30.00 Ry     beta= 0.70
     Davidson diagonalization with overlap
     ethr =  2.59E-07,  avg # of iterations =  4.3

     total cpu time spent up to now is      159.9 secs

     total energy              =    -333.18591588 Ry
     estimated scf accuracy    <       0.00006670 Ry

     iteration #  3     ecut=    30.00 Ry     beta= 0.70
     Davidson diagonalization with overlap
     ethr =  1.52E-07,  avg # of iterations =  4.5

     total cpu time spent up to now is      160.8 secs

     total energy              =    -333.18593259 Ry
     estimated scf accuracy    <       0.00003879 Ry

     iteration #  4     ecut=    30.00 Ry     beta= 0.70
     Davidson diagonalization with overlap
     ethr =  8.82E-08,  avg # of iterations =  3.7

     total cpu time spent up to now is      162.7 secs

     total energy              =    -333.18593703 Ry
     estimated scf accuracy    <       0.00000173 Ry

     iteration #  5     ecut=    30.00 Ry     beta= 0.70
     Davidson diagonalization with overlap
     ethr =  3.93E-09,  avg # of iterations =  5.8

     total cpu time spent up to now is      163.5 secs

     total energy              =    -333.18593898 Ry
     estimated scf accuracy    <       0.00000278 Ry

     iteration #  6     ecut=    30.00 Ry     beta= 0.70
     Davidson diagonalization with overlap
     ethr =  3.93E-09,  avg # of iterations =  2.0

     total cpu time spent up to now is      164.2 secs

     total energy              =    -333.18593863 Ry
     estimated scf accuracy    <       0.00000169 Ry

     iteration #  7     ecut=    30.00 Ry     beta= 0.70
     Davidson diagonalization with overlap
     ethr =  3.83E-09,  avg # of iterations =  3.0

     total cpu time spent up to now is      164.7 secs

     total energy              =    -333.18593878 Ry
     estimated scf accuracy    <       0.00000022 Ry

     iteration #  8     ecut=    30.00 Ry     beta= 0.70
     Davidson diagonalization with overlap
     ethr =  5.05E-10,  avg # of iterations =  4.7

     total cpu time spent up to now is      165.3 secs

     total energy              =    -333.18593887 Ry
     estimated scf accuracy    <          7.6E-09 Ry

     iteration #  9     ecut=    30.00 Ry     beta= 0.70
     Davidson diagonalization with overlap
     ethr =  1.73E-11,  avg # of iterations =  4.5

     total cpu time spent up to now is      165.8 secs

     total energy              =    -333.18593886 Ry
     estimated scf accuracy    <       0.00000002 Ry

     iteration # 10     ecut=    30.00 Ry     beta= 0.70
     Davidson diagonalization with overlap
     ethr =  1.73E-11,  avg # of iterations =  4.2

     total cpu time spent up to now is      166.2 secs

     End of self-consistent calculation

          k = 0.1250 0.1250 0.1250 (  1090 PWs)   bands (ev):

   -44.6370 -21.2856 -21.2464 -21.2455  -6.4324  -5.3847  -5.2551  -3.8770
    -3.8753  -3.8501  -3.7094  -3.6107   4.6869   7.1925   7.2994   8.0751
     9.0290   9.0609   9.6351   9.7613   9.9332  10.2485

          k = 0.1250 0.1250 0.3750 (  1095 PWs)   bands (ev):

   -44.6358 -21.3437 -21.2442 -21.2433  -6.0585  -5.2886  -5.0557  -3.9191
    -3.8613  -3.8486  -3.7030  -3.6729   3.9630   6.8406   7.1203   7.7071
     8.5391   8.6490   9.3320   9.8321  10.0106  10.9552

          k = 0.1250 0.3750 0.3750 (  1087 PWs)   bands (ev):

   -44.6345 -21.3400 -21.2997 -21.2417  -5.8242  -5.1601  -4.9598  -3.9015
    -3.8572  -3.8011  -3.6924  -3.5064   3.6143   6.5764   6.9324   7.1346
     7.4278   8.6282   9.3637   9.4222  10.1573  10.6571

          k = 0.3750 0.3750 0.3750 (  1082 PWs)   bands (ev):

   -44.6332 -21.3374 -21.2973 -21.2971  -5.4165  -5.2719  -5.1338  -3.8133
    -3.8094  -3.5548  -3.4457  -3.4165   4.0602   5.8859   5.9460   6.6151
     7.1084   7.1157   8.2466  10.5640  10.6013  10.6888

          k = 0.3750-0.1250 0.1250 (  1095 PWs)   bands (ev):

   -44.6358 -21.3035 -21.2832 -21.2438  -6.0128  -5.2552  -5.1859  -3.9315
    -3.8659  -3.8454  -3.7152  -3.6124   3.9375   6.7982   7.2948   7.8134
     8.3547   8.7794   9.2931   9.8354   9.9494  10.9262

          k = 0.3750-0.3750 0.1250 (  1087 PWs)   bands (ev):

   -44.6345 -21.3005 -21.2994 -21.2808  -5.7247  -5.1716  -5.1383  -3.9008
    -3.8357  -3.7310  -3.6272  -3.5775   3.4619   6.7402   6.8254   7.1850
     7.5491   8.7171   9.4585   9.4741  10.1321  10.6017

     highest occupied level (ev):    10.9552

!    total energy              =    -333.18593886 Ry
     estimated scf accuracy    <          1.8E-09 Ry

     The total energy is the sum of the following terms:
     one-electron contribution =     -78.13450661 Ry
     hartree contribution      =      67.06382883 Ry
     xc contribution           =     -49.68605066 Ry
     ewald contribution        =    -272.42921042 Ry

     convergence has been achieved in  10 iterations

     Forces acting on atoms (cartesian axes, Ry/au):

     atom    1 type  2   force =     0.00000000    0.00000000   -0.00195157
     atom    2 type  3   force =     0.00000000    0.00000000    0.00249457
     atom    3 type  1   force =     0.00000000    0.00000000   -0.00032488
     atom    4 type  1   force =     0.00000000    0.00000000   -0.00032488
     atom    5 type  1   force =     0.00000000    0.00000000    0.00010676

     Total force =     0.000472     Total SCF correction =     0.000021


     Computing stress (Cartesian axis) and pressure

          total   stress  (Ry/bohr**3)                   (kbar)     P=        4.98
  -0.00002902   0.00000000   0.00000000           -4.27        0.00        0.00
   0.00000000  -0.00002902   0.00000000            0.00       -4.27        0.00
   0.00000000   0.00000000   0.00015962            0.00        0.00       23.48

     Energy error            =      4.0E-05 Ry
     Gradient error          =      3.2E-04 Ry/Bohr

     bfgs converged in  25 scf cycles and  24 bfgs steps
     (criteria: energy <  1.0E-04 Ry, force <  1.0E-03 Ry/Bohr)

     End of BFGS Geometry Optimization

     Final energy             =    -333.1859388625 Ry

     File /home/bond/Work/Lab4/Problem2/PbTiO3_a_3.875_ecut_30_nk_4_displ_-0.03/pwscf.bfgs deleted, as requested
Begin final coordinates

ATOMIC_POSITIONS (angstrom)
Pb               0.0000000000        0.0000000000        0.0000000000    0   0   0
Ti               1.9375000000        1.9375000000        1.8212500000    0   0   0
O                0.0000000000        1.9375000000        1.6512034716
O                1.9375000000        0.0000000000        1.6512034716
O                1.9375000000        1.9375000000       -0.2377280621
End final coordinates


     Message from routine punch:
     Nothing written, as per user request (disk_io='none')

     init_run     :      1.13s CPU      1.22s WALL (       1 calls)
     electrons    :     94.26s CPU    120.04s WALL (      25 calls)
     update_pot   :      0.17s CPU      0.19s WALL (      24 calls)
     forces       :      3.81s CPU      4.91s WALL (      25 calls)
     stress       :     33.52s CPU     37.99s WALL (      25 calls)

     Called by init_run:
     wfcinit      :      0.08s CPU      0.09s WALL (       1 calls)
     potinit      :      0.10s CPU      0.10s WALL (       1 calls)
     hinit0       :      0.78s CPU      0.81s WALL (       1 calls)

     Called by electrons:
     c_bands      :     43.14s CPU     51.98s WALL (     218 calls)
     sum_band     :     29.46s CPU     38.72s WALL (     218 calls)
     v_of_rho     :      0.78s CPU      0.99s WALL (     234 calls)
     newd         :     22.76s CPU     30.63s WALL (     234 calls)
     mix_rho      :      0.43s CPU      0.52s WALL (     218 calls)

     Called by c_bands:
     init_us_2    :      1.17s CPU      1.30s WALL (    2922 calls)
     cegterg      :     40.49s CPU     48.82s WALL (    1308 calls)

     Called by *egterg:
     cdiaghg      :      5.12s CPU      6.08s WALL (    6706 calls)
     h_psi        :     27.88s CPU     33.89s WALL (    6910 calls)
     s_psi        :      1.12s CPU      1.27s WALL (    6910 calls)
     g_psi        :      0.18s CPU      0.21s WALL (    5596 calls)

     Called by h_psi:
     h_psi:calbec :      2.07s CPU      2.63s WALL (    6910 calls)
     vloc_psi     :     24.31s CPU     29.49s WALL (    6910 calls)
     add_vuspsi   :      1.28s CPU      1.55s WALL (    6910 calls)

     General routines
     calbec       :      3.71s CPU      4.79s WALL (   10768 calls)
     fft          :      1.36s CPU      1.57s WALL (    1512 calls)
     ffts         :      0.12s CPU      0.13s WALL (     452 calls)
     fftw         :     22.90s CPU     28.25s WALL (  205588 calls)
     interpolate  :      0.25s CPU      0.29s WALL (     234 calls)

     Parallel routines

     PWSCF        :   2m15.90s CPU   2m48.16s WALL


   This run was terminated on:  12:36:31  21Oct2025            

=------------------------------------------------------------------------------=
   JOB DONE.
=------------------------------------------------------------------------------=
