
     Program PWSCF v.7.4.1 starts on  7Oct2025 at 23:58:20 

     This program is part of the open-source Quantum ESPRESSO suite
     for quantum simulation of materials; please cite
         "P. Giannozzi et al., J. Phys.:Condens. Matter 21 395502 (2009);
         "P. Giannozzi et al., J. Phys.:Condens. Matter 29 465901 (2017);
         "P. Giannozzi et al., J. Chem. Phys. 152 154105 (2020);
          URL http://www.quantum-espresso.org", 
     in publications or presentations arising from this work. More details at
     http://www.quantum-espresso.org/quote

     Parallel version (MPI), running on     1 processors

     MPI processes distributed on     1 nodes
     241 MiB available memory on the printing compute node when the environment starts

     Waiting for input...
     Reading input from standard input
Warning: card &CELL ignored
Warning: card / ignored

     Current dimensions of program PWSCF are:
     Max number of different atomic species (ntypx) = 10
     Max number of k-points (npk) =  40000
     Max angular momentum in pseudopotentials (lmaxx) =  4
     Message from routine setup:
     using ibrav=0 with symmetry is DISCOURAGED, use correct ibrav instead

     Subspace diagonalization in iterative solution of the eigenvalue problem:
     a serial algorithm will be used


     G-vector sticks info
     --------------------
     sticks:   dense  smooth     PW     G-vecs:    dense   smooth      PW
     Sum        1177    1177    349                26813    26813    4279

     Using Slab Decomposition



     bravais-lattice index     =            0
     lattice parameter (alat)  =       7.5604  a.u.
     unit-cell volume          =     305.5804 (a.u.)^3
     number of atoms/cell      =            2
     number of atomic types    =            1
     number of electrons       =        28.00
     number of Kohn-Sham states=           14
     kinetic-energy cutoff     =      75.0000  Ry
     charge density cutoff     =     300.0000  Ry
     scf convergence threshold =      1.0E-07
     mixing beta               =       0.5000
     number of iterations used =            8  plain     mixing
     Exchange-correlation=  SLA  PZ   NOGX NOGC
                           (   1   1   0   0   0   0   0)

     celldm(1)=   7.560435  celldm(2)=   0.000000  celldm(3)=   0.000000
     celldm(4)=   0.000000  celldm(5)=   0.000000  celldm(6)=   0.000000

     crystal axes: (cart. coord. in units of alat)
               a(1) = (   0.000000   0.707107   0.707107 )  
               a(2) = (   0.707107   0.000000   0.707107 )  
               a(3) = (   0.707107   0.707107   0.000000 )  

     reciprocal axes: (cart. coord. in units 2 pi/alat)
               b(1) = ( -0.707107  0.707107  0.707107 )  
               b(2) = (  0.707107 -0.707107  0.707107 )  
               b(3) = (  0.707107  0.707107 -0.707107 )  


     PseudoPot. # 1 for Ge read from file:
     /home/bond/Software/QE/qe-7.4.1/pseudo/ge_lda_v1.4.uspp.F.UPF
     MD5 check sum: bf9d52b59cc8a669818bb2b52e0c2ba0
     Pseudo is Ultrasoft + core correction, Zval = 14.0
     Generated by new atomic code, or converted to UPF format
     Using radial grid of  873 points,  6 beta functions with: 
                l(1) =   0
                l(2) =   0
                l(3) =   1
                l(4) =   1
                l(5) =   2
                l(6) =   2
     Q(r) pseudized with  8 coefficients,  rinner =    1.400   1.400   1.400
                                                       1.400   1.400

     atomic species   valence    mass     pseudopotential
     Ge               14.00    72.63000     Ge( 1.00)

     48 Sym. Ops., with inversion, found (24 have fractional translation)



   Cartesian axes

     site n.     atom                  positions (alat units)
         1        Ge     tau(   1) = (   0.0000000   0.0000000   0.0000000  )
         2        Ge     tau(   2) = (   0.3535534   0.3535534   0.3535534  )

     number of k points=     8
                       cart. coord. in units 2pi/alat
        k(    1) = (   0.0000000   0.0000000   0.0000000), wk =   0.0312500
        k(    2) = (   0.1767767   0.1767767  -0.1767767), wk =   0.2500000
        k(    3) = (  -0.3535534  -0.3535534   0.3535534), wk =   0.1250000
        k(    4) = (   0.3535534   0.0000000   0.0000000), wk =   0.1875000
        k(    5) = (  -0.1767767  -0.5303301   0.5303301), wk =   0.7500000
        k(    6) = (   0.0000000  -0.3535534   0.3535534), wk =   0.3750000
        k(    7) = (  -0.7071068   0.0000000   0.0000000), wk =   0.0937500
        k(    8) = (  -0.7071068   0.3535534   0.0000000), wk =   0.1875000

     Dense  grid:    26813 G-vectors     FFT dimensions: (  48,  48,  48)

     Estimated max dynamical RAM per process >     110.66 MB

     Check: negative core charge=   -0.000001

     Initial potential from superposition of free atoms

     starting charge      27.9986, renormalised to      28.0000
     Starting wfcs are   18 randomized atomic wfcs

     total cpu time spent up to now is        1.6 secs

     Self-consistent Calculation

     iteration #  1     ecut=    75.00 Ry     beta= 0.50
     Davidson diagonalization with overlap
     ethr =  1.00E-02,  avg # of iterations =  1.9

     Threshold (ethr) on eigenvalues was too large:
     Diagonalizing with lowered threshold

     Davidson diagonalization with overlap
     ethr =  1.32E-04,  avg # of iterations =  1.9

     total cpu time spent up to now is        3.6 secs

     total energy              =    -426.15287216 Ry
     estimated scf accuracy    <       0.03932891 Ry

     iteration #  2     ecut=    75.00 Ry     beta= 0.50
     Davidson diagonalization with overlap
     ethr =  1.40E-04,  avg # of iterations =  1.1

     total cpu time spent up to now is        4.7 secs

     total energy              =    -426.15133925 Ry
     estimated scf accuracy    <       0.00696094 Ry

     iteration #  3     ecut=    75.00 Ry     beta= 0.50
     Davidson diagonalization with overlap
     ethr =  2.49E-05,  avg # of iterations =  2.0

     total cpu time spent up to now is        5.9 secs

     total energy              =    -426.15183700 Ry
     estimated scf accuracy    <       0.00007466 Ry

     iteration #  4     ecut=    75.00 Ry     beta= 0.50
     Davidson diagonalization with overlap
     ethr =  2.67E-07,  avg # of iterations =  2.9

     total cpu time spent up to now is        7.3 secs

     total energy              =    -426.15185633 Ry
     estimated scf accuracy    <       0.00000312 Ry

     iteration #  5     ecut=    75.00 Ry     beta= 0.50
     Davidson diagonalization with overlap
     ethr =  1.11E-08,  avg # of iterations =  4.0

     total cpu time spent up to now is        8.6 secs

     total energy              =    -426.15185726 Ry
     estimated scf accuracy    <       0.00000016 Ry

     iteration #  6     ecut=    75.00 Ry     beta= 0.50
     Davidson diagonalization with overlap
     ethr =  5.83E-10,  avg # of iterations =  3.6

     total cpu time spent up to now is       10.0 secs

     End of self-consistent calculation

          k = 0.0000 0.0000 0.0000 (  3383 PWs)   bands (ev):

   -16.6788 -16.6788 -16.6788 -16.6428 -16.6428 -16.4316 -16.4316 -16.4316
   -16.4183 -16.4183  -4.6287   8.0075   8.1966   8.1966

          k = 0.1768 0.1768-0.1768 (  3362 PWs)   bands (ev):

   -16.6971 -16.6971 -16.6702 -16.6142 -16.6142 -16.4574 -16.4574 -16.4417
   -16.3978 -16.3978  -3.8866   3.4148   7.3105   7.3105

          k =-0.3536-0.3536 0.3536 (  3354 PWs)   bands (ev):

   -16.7034 -16.7034 -16.6613 -16.6008 -16.6008 -16.4662 -16.4662 -16.4523
   -16.3909 -16.3909  -2.5398   0.5411   6.7884   6.7884

          k = 0.3536 0.0000 0.0000 (  3359 PWs)   bands (ev):

   -16.6972 -16.6972 -16.6853 -16.6085 -16.5734 -16.5189 -16.4498 -16.4056
   -16.4030 -16.4030  -3.6187   3.4065   6.1509   6.1509

          k =-0.1768-0.5303 0.5303 (  3339 PWs)   bands (ev):

   -16.7245 -16.7095 -16.6413 -16.5737 -16.5542 -16.5355 -16.4873 -16.4558
   -16.3829 -16.3685  -2.1302   0.7528   4.4378   5.7863

          k = 0.0000-0.3536 0.3536 (  3362 PWs)   bands (ev):

   -16.7197 -16.7122 -16.6350 -16.5984 -16.5709 -16.4989 -16.4795 -16.4664
   -16.3793 -16.3760  -2.7443   1.6072   4.2979   6.6868

          k =-0.7071 0.0000 0.0000 (  3338 PWs)   bands (ev):

   -16.7129 -16.7129 -16.6272 -16.6272 -16.5279 -16.5279 -16.4703 -16.4703
   -16.3769 -16.3769  -0.7471  -0.7471   5.1124   5.1124

          k =-0.7071 0.3536 0.0000 (  3316 PWs)   bands (ev):

   -16.7267 -16.7267 -16.5847 -16.5847 -16.5357 -16.5357 -16.5034 -16.5034
   -16.3647 -16.3647  -0.6492  -0.6492   4.2630   4.2630

     highest occupied level (ev):     8.1966

!    total energy              =    -426.15185730 Ry
     estimated scf accuracy    <       0.00000004 Ry

     The total energy is the sum of the following terms:
     one-electron contribution =    -279.23909379 Ry
     hartree contribution      =     165.13327978 Ry
     xc contribution           =    -114.55156825 Ry
     ewald contribution        =    -197.49447504 Ry

     convergence has been achieved in   6 iterations

     Forces acting on atoms (cartesian axes, Ry/au):

     atom    1 type  1   force =     0.00000000    0.00000000    0.00000000
     atom    2 type  1   force =     0.00000000   -0.00000000    0.00000000

     Total force =     0.000000     Total SCF correction =     0.000000


     Computing stress (Cartesian axis) and pressure

          total   stress  (Ry/bohr**3)                   (kbar)     P=       -2.30
  -0.00001560  -0.00000000  -0.00000000           -2.30       -0.00       -0.00
  -0.00000000  -0.00001560  -0.00000000           -0.00       -2.30       -0.00
  -0.00000000  -0.00000000  -0.00001560           -0.00       -0.00       -2.30

     Message from routine punch:
     Nothing written, as per user request (disk_io='none')

     init_run     :      1.41s CPU      1.48s WALL (       1 calls)
     electrons    :      7.75s CPU      8.39s WALL (       1 calls)
     forces       :      0.20s CPU      0.23s WALL (       1 calls)
     stress       :      1.40s CPU      1.52s WALL (       1 calls)

     Called by init_run:
     wfcinit      :      0.61s CPU      0.62s WALL (       1 calls)
     potinit      :      0.03s CPU      0.04s WALL (       1 calls)
     hinit0       :      0.63s CPU      0.63s WALL (       1 calls)

     Called by electrons:
     c_bands      :      5.42s CPU      5.49s WALL (       7 calls)
     sum_band     :      1.74s CPU      2.03s WALL (       7 calls)
     v_of_rho     :      0.05s CPU      0.06s WALL (       7 calls)
     newd         :      0.63s CPU      0.94s WALL (       7 calls)
     mix_rho      :      0.02s CPU      0.02s WALL (       7 calls)

     Called by c_bands:
     init_us_2    :      0.17s CPU      0.18s WALL (     136 calls)
     cegterg      :      5.05s CPU      5.11s WALL (      56 calls)

     Called by *egterg:
     cdiaghg      :      0.05s CPU      0.05s WALL (     187 calls)
     h_psi        :      5.07s CPU      5.15s WALL (     203 calls)
     s_psi        :      0.09s CPU      0.09s WALL (     203 calls)
     g_psi        :      0.02s CPU      0.02s WALL (     139 calls)

     Called by h_psi:
     h_psi:calbec :      0.12s CPU      0.12s WALL (     203 calls)
     vloc_psi     :      4.83s CPU      4.90s WALL (     203 calls)
     add_vuspsi   :      0.10s CPU      0.10s WALL (     203 calls)

     General routines
     calbec       :      0.24s CPU      0.24s WALL (     395 calls)
     fft          :      0.38s CPU      0.38s WALL (      37 calls)
     ffts         :      0.01s CPU      0.01s WALL (       7 calls)
     fftw         :      4.82s CPU      4.89s WALL (    5044 calls)

     Parallel routines

     PWSCF        :     10.91s CPU     11.76s WALL


   This run was terminated on:  23:58:32   7Oct2025            

=------------------------------------------------------------------------------=
   JOB DONE.
=------------------------------------------------------------------------------=
