
     Program PWSCF v.7.4.1 starts on  8Oct2025 at 21:35:40 

     This program is part of the open-source Quantum ESPRESSO suite
     for quantum simulation of materials; please cite
         "P. Giannozzi et al., J. Phys.:Condens. Matter 21 395502 (2009);
         "P. Giannozzi et al., J. Phys.:Condens. Matter 29 465901 (2017);
         "P. Giannozzi et al., J. Chem. Phys. 152 154105 (2020);
          URL http://www.quantum-espresso.org", 
     in publications or presentations arising from this work. More details at
     http://www.quantum-espresso.org/quote

     Parallel version (MPI), running on     1 processors

     MPI processes distributed on     1 nodes
     620 MiB available memory on the printing compute node when the environment starts

     Waiting for input...
     Reading input from standard input
Warning: card &CELL ignored
Warning: card / ignored

     Current dimensions of program PWSCF are:
     Max number of different atomic species (ntypx) = 10
     Max number of k-points (npk) =  40000
     Max angular momentum in pseudopotentials (lmaxx) =  4
     Message from routine find_sym:
     Not a group! Trying with lower acceptance parameter...
     Message from routine find_sym:
     Still not a group! symmetry disabled

     Subspace diagonalization in iterative solution of the eigenvalue problem:
     a serial algorithm will be used


     G-vector sticks info
     --------------------
     sticks:   dense  smooth     PW     G-vecs:    dense   smooth      PW
     Sum         511     511    163                 7631     7631    1363

     Using Slab Decomposition



     bravais-lattice index     =            0
     lattice parameter (alat)  =       7.2513  a.u.
     unit-cell volume          =     269.6100 (a.u.)^3
     number of atoms/cell      =            2
     number of atomic types    =            1
     number of electrons       =        28.00
     number of Kohn-Sham states=           14
     kinetic-energy cutoff     =      35.0000  Ry
     charge density cutoff     =     140.0000  Ry
     scf convergence threshold =      1.0E-07
     mixing beta               =       0.5000
     number of iterations used =            8  plain     mixing
     Exchange-correlation=  SLA  PZ   NOGX NOGC
                           (   1   1   0   0   0   0   0)

     celldm(1)=   7.251319  celldm(2)=   0.000000  celldm(3)=   0.000000
     celldm(4)=   0.000000  celldm(5)=   0.000000  celldm(6)=   0.000000

     crystal axes: (cart. coord. in units of alat)
               a(1) = (   0.000000   0.707107   0.707107 )  
               a(2) = (   0.707107   0.000000   0.707107 )  
               a(3) = (   0.707107   0.707107   0.000000 )  

     reciprocal axes: (cart. coord. in units 2 pi/alat)
               b(1) = ( -0.707107  0.707107  0.707107 )  
               b(2) = (  0.707107 -0.707107  0.707107 )  
               b(3) = (  0.707107  0.707107 -0.707107 )  


     PseudoPot. # 1 for Ge read from file:
     /home/bond/Software/QE/qe-7.4.1/pseudo/ge_lda_v1.4.uspp.F.UPF
     MD5 check sum: bf9d52b59cc8a669818bb2b52e0c2ba0
     Pseudo is Ultrasoft + core correction, Zval = 14.0
     Generated by new atomic code, or converted to UPF format
     Using radial grid of  873 points,  6 beta functions with: 
                l(1) =   0
                l(2) =   0
                l(3) =   1
                l(4) =   1
                l(5) =   2
                l(6) =   2
     Q(r) pseudized with  8 coefficients,  rinner =    1.400   1.400   1.400
                                                       1.400   1.400

     atomic species   valence    mass     pseudopotential
     Ge               14.00    72.63000     Ge( 1.00)

     No symmetry found



   Cartesian axes

     site n.     atom                  positions (alat units)
         1        Ge     tau(   1) = (   0.0000000   0.0000000   0.0000000  )
         2        Ge     tau(   2) = (   0.3535543   0.3535543   0.3535543  )

     number of k points=   504

     Number of k-points >= 100: set verbosity='high' to print them.

     Dense  grid:     7631 G-vectors     FFT dimensions: (  32,  32,  32)

     Estimated max dynamical RAM per process >     132.03 MB

     Check: negative core charge=   -0.000016

     Initial potential from superposition of free atoms

     starting charge      27.9986, renormalised to      28.0000
     Starting wfcs are   18 randomized atomic wfcs

     total cpu time spent up to now is        5.1 secs

     Self-consistent Calculation

     iteration #  1     ecut=    35.00 Ry     beta= 0.50
     Davidson diagonalization with overlap
     ethr =  1.00E-02,  avg # of iterations =  2.0

     Threshold (ethr) on eigenvalues was too large:
     Diagonalizing with lowered threshold

     Davidson diagonalization with overlap
     ethr =  1.44E-04,  avg # of iterations =  2.0

     total cpu time spent up to now is       22.0 secs

     total energy              =    -426.16111503 Ry
     estimated scf accuracy    <       0.04206850 Ry

     iteration #  2     ecut=    35.00 Ry     beta= 0.50
     Davidson diagonalization with overlap
     ethr =  1.50E-04,  avg # of iterations =  1.1

     total cpu time spent up to now is       29.6 secs

     total energy              =    -426.15960240 Ry
     estimated scf accuracy    <       0.00703194 Ry

     iteration #  3     ecut=    35.00 Ry     beta= 0.50
     Davidson diagonalization with overlap
     ethr =  2.51E-05,  avg # of iterations =  2.0

     total cpu time spent up to now is       38.3 secs

     total energy              =    -426.16018662 Ry
     estimated scf accuracy    <       0.00007820 Ry

     iteration #  4     ecut=    35.00 Ry     beta= 0.50
     Davidson diagonalization with overlap
     ethr =  2.79E-07,  avg # of iterations =  3.3

     total cpu time spent up to now is       49.4 secs

     total energy              =    -426.16021143 Ry
     estimated scf accuracy    <       0.00000286 Ry

     iteration #  5     ecut=    35.00 Ry     beta= 0.50
     Davidson diagonalization with overlap
     ethr =  1.02E-08,  avg # of iterations =  3.4

     total cpu time spent up to now is       60.7 secs

     total energy              =    -426.16021239 Ry
     estimated scf accuracy    <       0.00000025 Ry

     iteration #  6     ecut=    35.00 Ry     beta= 0.50
     Davidson diagonalization with overlap
     ethr =  9.06E-10,  avg # of iterations =  2.5

     total cpu time spent up to now is       70.6 secs

     End of self-consistent calculation

     Number of k-points >= 100: set verbosity='high' to print the bands.

     highest occupied level (ev):     9.9065

!    total energy              =    -426.16021244 Ry
     estimated scf accuracy    <       0.00000005 Ry

     The total energy is the sum of the following terms:
     one-electron contribution =    -265.24762011 Ry
     hartree contribution      =     159.69767440 Ry
     xc contribution           =    -114.69680115 Ry
     ewald contribution        =    -205.91346558 Ry

     convergence has been achieved in   6 iterations

     Forces acting on atoms (cartesian axes, Ry/au):

     atom    1 type  1   force =     0.00000171    0.00000158    0.00000034
     atom    2 type  1   force =    -0.00000171   -0.00000158   -0.00000034

     Total force =     0.000003     Total SCF correction =     0.000005
     SCF correction compared to forces is large: reduce conv_thr to get better values


     Computing stress (Cartesian axis) and pressure

          total   stress  (Ry/bohr**3)                   (kbar)     P=       85.44
   0.00058082  -0.00000001  -0.00000001           85.44       -0.00       -0.00
  -0.00000001   0.00058082  -0.00000002           -0.00       85.44       -0.00
  -0.00000001  -0.00000002   0.00058082           -0.00       -0.00       85.44

     Message from routine punch:
     Nothing written, as per user request (disk_io='none')

     init_run     :      4.54s CPU      5.00s WALL (       1 calls)
     electrons    :     64.40s CPU     65.51s WALL (       1 calls)
     forces       :      0.50s CPU      0.50s WALL (       1 calls)
     stress       :      2.61s CPU      2.63s WALL (       1 calls)

     Called by init_run:
     wfcinit      :      4.15s CPU      4.60s WALL (       1 calls)
     potinit      :      0.01s CPU      0.01s WALL (       1 calls)
     hinit0       :      0.31s CPU      0.31s WALL (       1 calls)

     Called by electrons:
     c_bands      :     54.99s CPU     55.96s WALL (       7 calls)
     sum_band     :      9.29s CPU      9.41s WALL (       7 calls)
     v_of_rho     :      0.01s CPU      0.01s WALL (       7 calls)
     newd         :      0.13s CPU      0.14s WALL (       7 calls)
     mix_rho      :      0.00s CPU      0.00s WALL (       7 calls)

     Called by c_bands:
     init_us_2    :      2.05s CPU      2.09s WALL (    8568 calls)
     cegterg      :     50.07s CPU     50.91s WALL (    3528 calls)

     Called by *egterg:
     cdiaghg      :      2.03s CPU      2.07s WALL (   11210 calls)
     h_psi        :     45.44s CPU     46.58s WALL (   12218 calls)
     s_psi        :      1.14s CPU      1.16s WALL (   12218 calls)
     g_psi        :      0.29s CPU      0.30s WALL (    8186 calls)

     Called by h_psi:
     h_psi:calbec :      1.49s CPU      1.51s WALL (   12218 calls)
     vloc_psi     :     42.27s CPU     43.29s WALL (   12218 calls)
     add_vuspsi   :      1.19s CPU      1.21s WALL (   12218 calls)

     General routines
     calbec       :      2.81s CPU      2.85s WALL (   24314 calls)
     fft          :      0.14s CPU      0.14s WALL (      37 calls)
     ffts         :      0.00s CPU      0.00s WALL (       7 calls)
     fftw         :     41.96s CPU     42.90s WALL (  315212 calls)

     Parallel routines

     PWSCF        :   1m12.13s CPU   1m13.73s WALL


   This run was terminated on:  21:36:54   8Oct2025            

=------------------------------------------------------------------------------=
   JOB DONE.
=------------------------------------------------------------------------------=
