LAMMPS (22 Jul 2025 - Update 1)
# ---------- 1. Initialize simulation ---------------------
units metal
atom_style atomic
dimension  3
boundary   p p f
read_data /home/bond/Work/Lab1/Surface/LJ/relax/6_8_100/lammps.data
Reading data file ...
  orthogonal box = (0 0 0) to (8.7451919 8.7451919 26.306308)
  1 by 1 by 1 MPI processor grid
  reading atoms ...
  54 atoms
  read_data CPU = 0.001 seconds

# ---------- 2. Specify interatomic potential ---------------------
pair_style lj/cut 4.5
pair_coeff 1 1 0.392 2.620 4.5

# ---------- 3. Run single point calculation  ---------------------
thermo_style custom step pe lx ly lz press pxx pyy pzz
run 0
WARNING: No fixes with time integration, atoms won't move
For more information see https://docs.lammps.org/err0028 (../verlet.cpp:60)
Generated 0 of 0 mixed pair_coeff terms from geometric mixing rule
Neighbor list info ...
  update: every = 1 steps, delay = 0 steps, check = yes
  max neighbors/atom: 2000, page size: 100000
  master list distance cutoff = 6.5
  ghost atom cutoff = 6.5
  binsize = 3.25, bins = 3 3 9
  1 neighbor lists, perpetual/occasional/extra = 1 0 0
  (1) pair lj/cut, perpetual
      attributes: half, newton on
      pair build: half/bin/atomonly/newton
      stencil: half/bin/3d
      bin: standard
Per MPI rank memory allocation (min/avg/max) = 3.054 | 3.054 | 3.054 Mbytes
   Step         PotEng           Lx             Ly             Lz           Press           Pxx            Pyy            Pzz      
         0  -126.46102      8.7451919      8.7451919      26.306308     -0.17586765    -1928.9078     -1928.9078      3857.288     
Loop time of 1.509e-06 on 1 procs for 0 steps with 54 atoms

0.0% CPU use with 1 MPI tasks x no OpenMP threads

MPI task timing breakdown:
Section |  min time  |  avg time  |  max time  |%varavg| %total
---------------------------------------------------------------
Pair    | 0          | 0          | 0          |   0.0 |  0.00
Neigh   | 0          | 0          | 0          |   0.0 |  0.00
Comm    | 0          | 0          | 0          |   0.0 |  0.00
Output  | 0          | 0          | 0          |   0.0 |  0.00
Modify  | 0          | 0          | 0          |   0.0 |  0.00
Other   |            | 1.509e-06  |            |       |100.00

Nlocal:             54 ave          54 max          54 min
Histogram: 1 0 0 0 0 0 0 0 0 0
Nghost:            285 ave         285 max         285 min
Histogram: 1 0 0 0 0 0 0 0 0 0
Neighs:           1188 ave        1188 max        1188 min
Histogram: 1 0 0 0 0 0 0 0 0 0

Total # of neighbors = 1188
Ave neighs/atom = 22
Neighbor list builds = 0
Dangerous builds = 0
# -- include optimization of the unit cell parameter
fix 1 all box/relax x 0.0 y 0.0 couple xy vmax 0.001

# -- enable optimization of atomic positions (and the cell)
min_style cg
minimize 1e-10 1e-10 1000 10000
Generated 0 of 0 mixed pair_coeff terms from geometric mixing rule
WARNING: Energy due to 3 extra global DOFs will be included in minimizer energies
 (../min.cpp:222)
Per MPI rank memory allocation (min/avg/max) = 4.179 | 4.179 | 4.179 Mbytes
   Step         PotEng           Lx             Ly             Lz           Press           Pxx            Pyy            Pzz      
         0  -126.46102      8.7451919      8.7451919      26.306308     -0.17586765    -1928.9078     -1928.9078      3857.288     
        36  -126.49771      8.7177749      8.7177749      26.306308      3.8626875      0.36689738     0.36689738     10.854268    
Loop time of 0.00169275 on 1 procs for 36 steps with 54 atoms

57.3% CPU use with 1 MPI tasks x no OpenMP threads

Minimization stats:
  Stopping criterion = energy tolerance
  Energy initial, next-to-last, final = 
     -126.461019705825  -126.497706400309  -126.497706400882
  Force two-norm initial, final = 3.513885 0.0010454733
  Force max component initial, final = 2.4221425 0.00045927112
  Final line search alpha, max atom move = 1 0.00045927112
  Iterations, force evaluations = 36 69

MPI task timing breakdown:
Section |  min time  |  avg time  |  max time  |%varavg| %total
---------------------------------------------------------------
Pair    | 0.0010682  | 0.0010682  | 0.0010682  |   0.0 | 63.10
Neigh   | 0          | 0          | 0          |   0.0 |  0.00
Comm    | 9.8863e-05 | 9.8863e-05 | 9.8863e-05 |   0.0 |  5.84
Output  | 0          | 0          | 0          |   0.0 |  0.00
Modify  | 0          | 0          | 0          |   0.0 |  0.00
Other   |            | 0.0005257  |            |       | 31.06

Nlocal:             54 ave          54 max          54 min
Histogram: 1 0 0 0 0 0 0 0 0 0
Nghost:            285 ave         285 max         285 min
Histogram: 1 0 0 0 0 0 0 0 0 0
Neighs:           1188 ave        1188 max        1188 min
Histogram: 1 0 0 0 0 0 0 0 0 0

Total # of neighbors = 1188
Ave neighs/atom = 22
Neighbor list builds = 0
Dangerous builds = 0

# ---- 4. Define and print useful variables -------------
variable natoms equal "count(all)"
variable totenergy equal "pe"
variable length equal "lx"

print "Total energy (eV) = ${totenergy}"
Total energy (eV) = -126.497706400882
print "Number of atoms = ${natoms}"
Number of atoms = 54
print "Lattice constant (Angstoms) = ${length}"
Lattice constant (Angstoms) = 8.71777490475538
Total wall time: 0:00:00
