
     Program PWSCF v.7.4.1 starts on  8Oct2025 at  0:23:14 

     This program is part of the open-source Quantum ESPRESSO suite
     for quantum simulation of materials; please cite
         "P. Giannozzi et al., J. Phys.:Condens. Matter 21 395502 (2009);
         "P. Giannozzi et al., J. Phys.:Condens. Matter 29 465901 (2017);
         "P. Giannozzi et al., J. Chem. Phys. 152 154105 (2020);
          URL http://www.quantum-espresso.org", 
     in publications or presentations arising from this work. More details at
     http://www.quantum-espresso.org/quote

     Parallel version (MPI), running on     1 processors

     MPI processes distributed on     1 nodes
     146 MiB available memory on the printing compute node when the environment starts

     Waiting for input...
     Reading input from standard input
Warning: card &CELL ignored
Warning: card / ignored

     Current dimensions of program PWSCF are:
     Max number of different atomic species (ntypx) = 10
     Max number of k-points (npk) =  40000
     Max angular momentum in pseudopotentials (lmaxx) =  4
     Message from routine setup:
     using ibrav=0 with symmetry is DISCOURAGED, use correct ibrav instead

     Subspace diagonalization in iterative solution of the eigenvalue problem:
     a serial algorithm will be used


     G-vector sticks info
     --------------------
     sticks:   dense  smooth     PW     G-vecs:    dense   smooth      PW
     Sum          85      85     37                  459      459     137

     Using Slab Decomposition



     bravais-lattice index     =            0
     lattice parameter (alat)  =       7.5604  a.u.
     unit-cell volume          =     305.5804 (a.u.)^3
     number of atoms/cell      =            2
     number of atomic types    =            1
     number of electrons       =        28.00
     number of Kohn-Sham states=           14
     kinetic-energy cutoff     =       5.0000  Ry
     charge density cutoff     =      20.0000  Ry
     scf convergence threshold =      1.0E-07
     mixing beta               =       0.5000
     number of iterations used =            8  plain     mixing
     Exchange-correlation=  SLA  PZ   NOGX NOGC
                           (   1   1   0   0   0   0   0)

     celldm(1)=   7.560435  celldm(2)=   0.000000  celldm(3)=   0.000000
     celldm(4)=   0.000000  celldm(5)=   0.000000  celldm(6)=   0.000000

     crystal axes: (cart. coord. in units of alat)
               a(1) = (   0.000000   0.707107   0.707107 )  
               a(2) = (   0.707107   0.000000   0.707107 )  
               a(3) = (   0.707107   0.707107   0.000000 )  

     reciprocal axes: (cart. coord. in units 2 pi/alat)
               b(1) = ( -0.707107  0.707107  0.707107 )  
               b(2) = (  0.707107 -0.707107  0.707107 )  
               b(3) = (  0.707107  0.707107 -0.707107 )  


     PseudoPot. # 1 for Ge read from file:
     /home/bond/Software/QE/qe-7.4.1/pseudo/ge_lda_v1.4.uspp.F.UPF
     MD5 check sum: bf9d52b59cc8a669818bb2b52e0c2ba0
     Pseudo is Ultrasoft + core correction, Zval = 14.0
     Generated by new atomic code, or converted to UPF format
     Using radial grid of  873 points,  6 beta functions with: 
                l(1) =   0
                l(2) =   0
                l(3) =   1
                l(4) =   1
                l(5) =   2
                l(6) =   2
     Q(r) pseudized with  8 coefficients,  rinner =    1.400   1.400   1.400
                                                       1.400   1.400

     atomic species   valence    mass     pseudopotential
     Ge               14.00    72.63000     Ge( 1.00)

      4 Sym. Ops. (no inversion) found



   Cartesian axes

     site n.     atom                  positions (alat units)
         1        Ge     tau(   1) = (   0.0000000   0.0000000   0.0707107  )
         2        Ge     tau(   2) = (   0.3535534   0.3535534   0.3535534  )

     number of k points=    18
                       cart. coord. in units 2pi/alat
        k(    1) = (   0.0000000   0.0000000   0.0000000), wk =   0.0312500
        k(    2) = (   0.1767767   0.1767767  -0.1767767), wk =   0.1250000
        k(    3) = (  -0.3535534  -0.3535534   0.3535534), wk =   0.0625000
        k(    4) = (   0.3535534   0.0000000   0.0000000), wk =   0.1250000
        k(    5) = (  -0.1767767  -0.5303301   0.5303301), wk =   0.2500000
        k(    6) = (   0.0000000  -0.3535534   0.3535534), wk =   0.2500000
        k(    7) = (  -0.7071068   0.0000000   0.0000000), wk =   0.0625000
        k(    8) = (  -0.7071068   0.3535534   0.0000000), wk =   0.1250000
        k(    9) = (   0.1767767  -0.1767767  -0.1767767), wk =   0.1250000
        k(   10) = (  -0.3535534   0.3535534   0.3535534), wk =   0.0625000
        k(   11) = (   0.0000000   0.0000000   0.3535534), wk =   0.0625000
        k(   12) = (  -0.5303301   0.1767767   0.5303301), wk =   0.2500000
        k(   13) = (   0.5303301   0.5303301  -0.1767767), wk =   0.1250000
        k(   14) = (  -0.5303301   0.5303301   0.1767767), wk =   0.1250000
        k(   15) = (   0.3535534   0.3535534   0.0000000), wk =   0.0625000
        k(   16) = (  -0.3535534   0.3535534   0.0000000), wk =   0.0625000
        k(   17) = (   0.0000000   0.0000000  -0.7071068), wk =   0.0312500
        k(   18) = (   0.7071068   0.0000000   0.3535534), wk =   0.0625000

     Dense  grid:      459 G-vectors     FFT dimensions: (  12,  12,  12)

     Estimated max dynamical RAM per process >       2.35 MB

     Check: negative core charge=   -0.050911

     Initial potential from superposition of free atoms

     starting charge      27.9986, renormalised to      28.0000

     negative rho (up, down):  4.811E+00 0.000E+00
     Starting wfcs are   18 randomized atomic wfcs

     total cpu time spent up to now is        0.3 secs

     Self-consistent Calculation

     iteration #  1     ecut=     5.00 Ry     beta= 0.50
     Davidson diagonalization with overlap
     ethr =  1.00E-02,  avg # of iterations =  5.0

     negative rho (up, down):  2.707E-01 0.000E+00

     total cpu time spent up to now is        0.4 secs

     total energy              =    -279.14387764 Ry
     estimated scf accuracy    <     144.52783954 Ry

     iteration #  2     ecut=     5.00 Ry     beta= 0.50
     Davidson diagonalization with overlap
     ethr =  1.00E-02,  avg # of iterations =  6.0

     negative rho (up, down):  9.207E-02 0.000E+00

     total cpu time spent up to now is        0.5 secs

     total energy              =    -273.00427964 Ry
     estimated scf accuracy    <      22.82737166 Ry

     iteration #  3     ecut=     5.00 Ry     beta= 0.50
     Davidson diagonalization with overlap
     ethr =  1.00E-02,  avg # of iterations =  2.2

     negative rho (up, down):  3.292E-02 0.000E+00

     total cpu time spent up to now is        0.5 secs

     total energy              =    -271.62411891 Ry
     estimated scf accuracy    <       1.95320114 Ry

     iteration #  4     ecut=     5.00 Ry     beta= 0.50
     Davidson diagonalization with overlap
     ethr =  6.98E-03,  avg # of iterations =  1.3

     negative rho (up, down):  2.099E-02 0.000E+00

     total cpu time spent up to now is        0.6 secs

     total energy              =    -271.69624531 Ry
     estimated scf accuracy    <       0.01780342 Ry

     iteration #  5     ecut=     5.00 Ry     beta= 0.50
     Davidson diagonalization with overlap
     ethr =  6.36E-05,  avg # of iterations =  6.2

     negative rho (up, down):  1.652E-02 0.000E+00

     total cpu time spent up to now is        0.7 secs

     total energy              =    -271.74346496 Ry
     estimated scf accuracy    <       0.00302846 Ry

     iteration #  6     ecut=     5.00 Ry     beta= 0.50
     Davidson diagonalization with overlap
     ethr =  1.08E-05,  avg # of iterations =  3.1

     negative rho (up, down):  1.765E-02 0.000E+00

     total cpu time spent up to now is        0.7 secs

     total energy              =    -271.74365698 Ry
     estimated scf accuracy    <       0.00032510 Ry

     iteration #  7     ecut=     5.00 Ry     beta= 0.50
     Davidson diagonalization with overlap
     ethr =  1.16E-06,  avg # of iterations =  4.3

     negative rho (up, down):  1.778E-02 0.000E+00

     total cpu time spent up to now is        0.8 secs

     total energy              =    -271.74375475 Ry
     estimated scf accuracy    <       0.00001883 Ry

     iteration #  8     ecut=     5.00 Ry     beta= 0.50
     Davidson diagonalization with overlap
     ethr =  6.73E-08,  avg # of iterations =  4.1

     negative rho (up, down):  1.787E-02 0.000E+00

     total cpu time spent up to now is        0.8 secs

     total energy              =    -271.74375833 Ry
     estimated scf accuracy    <       0.00000339 Ry

     iteration #  9     ecut=     5.00 Ry     beta= 0.50
     Davidson diagonalization with overlap
     ethr =  1.21E-08,  avg # of iterations =  5.3

     negative rho (up, down):  1.786E-02 0.000E+00

     total cpu time spent up to now is        0.9 secs

     total energy              =    -271.74375871 Ry
     estimated scf accuracy    <       0.00000250 Ry

     iteration # 10     ecut=     5.00 Ry     beta= 0.50
     Davidson diagonalization with overlap
     ethr =  8.93E-09,  avg # of iterations =  4.4

     negative rho (up, down):  1.787E-02 0.000E+00

     total cpu time spent up to now is        1.0 secs

     total energy              =    -271.74375930 Ry
     estimated scf accuracy    <       0.00000035 Ry

     iteration # 11     ecut=     5.00 Ry     beta= 0.50
     Davidson diagonalization with overlap
     ethr =  1.23E-09,  avg # of iterations =  3.4

     negative rho (up, down):  1.787E-02 0.000E+00

     total cpu time spent up to now is        1.0 secs

     End of self-consistent calculation

          k = 0.0000 0.0000 0.0000 (    59 PWs)   bands (ev):

   -40.0088 -37.6885 -16.1612 -14.2795 -13.8451 -11.5391 -11.0992 -10.8241
    14.4024  15.1562  16.0644  16.6150  17.4059  17.4617

          k = 0.1768 0.1768-0.1768 (    61 PWs)   bands (ev):

   -40.4559 -37.5651 -15.4373 -14.5943 -14.0551 -12.3733 -12.3670 -11.1630
    14.7512  15.1687  15.1747  16.0580  17.6709  17.9340

          k =-0.3536-0.3536 0.3536 (    52 PWs)   bands (ev):

   -38.7643 -35.7106 -12.8657 -11.6646 -11.0623 -11.0170 -10.2086  -5.4635
    14.0563  16.1455  16.9866  16.9903  17.5704  17.7109

          k = 0.3536 0.0000 0.0000 (    60 PWs)   bands (ev):

   -39.9789 -37.7163 -15.8537 -14.9182 -13.9260 -12.4771 -10.8596 -10.3538
    14.2681  15.4979  15.9284  16.1404  17.9958  18.0862

          k =-0.1768-0.5303 0.5303 (    57 PWs)   bands (ev):

   -38.3588 -37.6158 -14.3154 -13.2474 -11.8281 -10.9625  -9.6812  -9.2999
    13.4668  14.5000  16.0599  17.2190  17.4074  19.3209

          k = 0.0000-0.3536 0.3536 (    57 PWs)   bands (ev):

   -39.2527 -36.9301 -14.7139 -13.9631 -11.7780 -11.4092 -10.9062  -8.6234
    14.9209  15.4045  15.6668  16.6501  18.5157  18.7716

          k =-0.7071 0.0000 0.0000 (    64 PWs)   bands (ev):

   -39.2158 -39.1585 -15.5469 -15.5395 -12.9288 -12.8189 -10.8916 -10.7689
    12.8971  13.1180  15.9507  16.0472  17.2804  17.2957

          k =-0.7071 0.3536 0.0000 (    56 PWs)   bands (ev):

   -38.9066 -37.1086 -13.8355 -12.5742 -11.8277 -11.0218 -10.2379  -9.3114
    13.7210  15.4044  16.6472  17.7535  18.0995  19.3470

          k = 0.1768-0.1768-0.1768 (    61 PWs)   bands (ev):

   -40.5444 -37.3415 -16.2772 -14.8813 -13.4626 -12.2831 -12.2294 -10.9139
    15.0694  15.1182  15.3437  16.7735  17.4698  17.8260

          k =-0.3536 0.3536 0.3536 (    52 PWs)   bands (ev):

   -39.2818 -34.7462 -12.6453 -12.5084 -11.3989 -10.6347 -10.4394  -5.1562
    16.4949  16.5368  16.8269  17.8878  18.1854  18.3463

          k = 0.0000 0.0000 0.3536 (    60 PWs)   bands (ev):

   -39.8793 -37.8323 -16.3547 -14.7182 -13.9135 -12.5650 -10.6714 -10.2297
    14.2170  15.8949  16.0773  16.9770  17.0471  17.7300

          k =-0.5303 0.1768 0.5303 (    57 PWs)   bands (ev):

   -39.0563 -36.9563 -14.4509 -13.2276 -12.3539 -10.4757  -9.8887  -9.5370
    14.2650  15.1536  16.5191  17.2580  18.4892  19.4312

          k = 0.5303 0.5303-0.1768 (    57 PWs)   bands (ev):

   -38.8929 -37.1391 -14.4975 -13.1093 -12.3000 -10.9379  -9.6477  -9.0274
    13.9510  14.5163  16.2174  16.9212  17.3254  19.6427

          k =-0.5303 0.5303 0.1768 (    57 PWs)   bands (ev):

   -39.0145 -36.8708 -15.2224 -12.8803 -11.9682 -10.2075  -9.6881  -9.6037
    14.9510  15.2980  16.7766  17.5668  17.9948  19.2818

          k = 0.3536 0.3536 0.0000 (    57 PWs)   bands (ev):

   -38.9172 -37.3147 -14.5091 -13.7434 -12.1322 -11.5605 -10.5092  -9.5080
    13.8167  15.0254  15.8884  16.9420  17.9139  18.4997

          k =-0.3536 0.3536 0.0000 (    57 PWs)   bands (ev):

   -39.8233 -36.2192 -15.1855 -13.2427 -11.9998 -11.6211 -11.3739  -7.7677
    14.9007  15.8420  16.6366  17.6907  18.0133  18.9691

          k = 0.0000 0.0000-0.7071 (    64 PWs)   bands (ev):

   -40.3142 -37.8288 -16.6338 -14.8202 -14.7068 -11.0351 -11.0286 -10.3574
    12.8369  13.4090  13.7785  16.1180  16.6111  17.5550

          k = 0.7071 0.0000 0.3536 (    56 PWs)   bands (ev):

   -38.0732 -38.0194 -13.1251 -13.1246 -11.0676 -10.9278 -10.3179 -10.2900
    13.9272  14.1164  17.1519  17.1680  19.5134  19.5435

     highest occupied level (ev):    19.6427

!    total energy              =    -271.74375935 Ry
     estimated scf accuracy    <       0.00000002 Ry

     The total energy is the sum of the following terms:
     one-electron contribution =     -15.53494563 Ry
     hartree contribution      =      21.87038144 Ry
     xc contribution           =     -81.32997495 Ry
     ewald contribution        =    -196.74922020 Ry

     convergence has been achieved in  11 iterations

     negative rho (up, down):  1.787E-02 0.000E+00

     Forces acting on atoms (cartesian axes, Ry/au):

     atom    1 type  1   force =     0.00000000    0.00000000    0.91981254
     atom    2 type  1   force =     0.00000000    0.00000000   -0.91981254

     Total force =     1.300811     Total SCF correction =     0.000110


     Computing stress (Cartesian axis) and pressure


     negative rho (up, down):  1.787E-02 0.000E+00
          total   stress  (Ry/bohr**3)                   (kbar)     P=   -13621.21
  -0.09260060   0.00251323   0.00000000       -13622.02      369.71        0.00
   0.00251323  -0.09260060   0.00000000          369.71   -13622.02        0.00
  -0.00000000  -0.00000000  -0.09258419           -0.00       -0.00   -13619.60

     Message from routine punch:
     Nothing written, as per user request (disk_io='none')

     init_run     :      0.14s CPU      0.15s WALL (       1 calls)
     electrons    :      0.61s CPU      0.67s WALL (       1 calls)
     forces       :      0.01s CPU      0.01s WALL (       1 calls)
     stress       :      0.03s CPU      0.03s WALL (       1 calls)

     Called by init_run:
     wfcinit      :      0.03s CPU      0.03s WALL (       1 calls)
     potinit      :      0.00s CPU      0.00s WALL (       1 calls)
     hinit0       :      0.11s CPU      0.11s WALL (       1 calls)

     Called by electrons:
     c_bands      :      0.54s CPU      0.59s WALL (      11 calls)
     sum_band     :      0.05s CPU      0.06s WALL (      11 calls)
     v_of_rho     :      0.00s CPU      0.00s WALL (      12 calls)
     newd         :      0.02s CPU      0.02s WALL (      12 calls)
     mix_rho      :      0.00s CPU      0.00s WALL (      11 calls)

     Called by c_bands:
     init_us_2    :      0.01s CPU      0.01s WALL (     450 calls)
     cegterg      :      0.50s CPU      0.55s WALL (     198 calls)

     Called by *egterg:
     cdiaghg      :      0.24s CPU      0.26s WALL (    1012 calls)
     h_psi        :      0.22s CPU      0.24s WALL (    1030 calls)
     s_psi        :      0.01s CPU      0.01s WALL (    1030 calls)
     g_psi        :      0.00s CPU      0.00s WALL (     814 calls)

     Called by h_psi:
     h_psi:calbec :      0.01s CPU      0.01s WALL (    1030 calls)
     vloc_psi     :      0.18s CPU      0.20s WALL (    1030 calls)
     add_vuspsi   :      0.01s CPU      0.01s WALL (    1030 calls)

     General routines
     calbec       :      0.01s CPU      0.02s WALL (    1534 calls)
     fft          :      0.03s CPU      0.03s WALL (      56 calls)
     ffts         :      0.00s CPU      0.00s WALL (      11 calls)
     fftw         :      0.14s CPU      0.16s WALL (   19778 calls)

     Parallel routines

     PWSCF        :      0.96s CPU      1.05s WALL


   This run was terminated on:   0:23:16   8Oct2025            

=------------------------------------------------------------------------------=
   JOB DONE.
=------------------------------------------------------------------------------=
