
     Program PWSCF v.7.4.1 starts on  8Oct2025 at  0:39:20 

     This program is part of the open-source Quantum ESPRESSO suite
     for quantum simulation of materials; please cite
         "P. Giannozzi et al., J. Phys.:Condens. Matter 21 395502 (2009);
         "P. Giannozzi et al., J. Phys.:Condens. Matter 29 465901 (2017);
         "P. Giannozzi et al., J. Chem. Phys. 152 154105 (2020);
          URL http://www.quantum-espresso.org", 
     in publications or presentations arising from this work. More details at
     http://www.quantum-espresso.org/quote

     Parallel version (MPI), running on     1 processors

     MPI processes distributed on     1 nodes
     175 MiB available memory on the printing compute node when the environment starts

     Waiting for input...
     Reading input from standard input
Warning: card &CELL ignored
Warning: card / ignored

     Current dimensions of program PWSCF are:
     Max number of different atomic species (ntypx) = 10
     Max number of k-points (npk) =  40000
     Max angular momentum in pseudopotentials (lmaxx) =  4
     Message from routine setup:
     using ibrav=0 with symmetry is DISCOURAGED, use correct ibrav instead

     Subspace diagonalization in iterative solution of the eigenvalue problem:
     a serial algorithm will be used


     G-vector sticks info
     --------------------
     sticks:   dense  smooth     PW     G-vecs:    dense   smooth      PW
     Sum         475     475    151                 6855     6855    1139

     Using Slab Decomposition



     bravais-lattice index     =            0
     lattice parameter (alat)  =       7.5604  a.u.
     unit-cell volume          =     305.5804 (a.u.)^3
     number of atoms/cell      =            2
     number of atomic types    =            1
     number of electrons       =        28.00
     number of Kohn-Sham states=           14
     kinetic-energy cutoff     =      30.0000  Ry
     charge density cutoff     =     120.0000  Ry
     scf convergence threshold =      1.0E-07
     mixing beta               =       0.5000
     number of iterations used =            8  plain     mixing
     Exchange-correlation=  SLA  PZ   NOGX NOGC
                           (   1   1   0   0   0   0   0)

     celldm(1)=   7.560435  celldm(2)=   0.000000  celldm(3)=   0.000000
     celldm(4)=   0.000000  celldm(5)=   0.000000  celldm(6)=   0.000000

     crystal axes: (cart. coord. in units of alat)
               a(1) = (   0.000000   0.707107   0.707107 )  
               a(2) = (   0.707107   0.000000   0.707107 )  
               a(3) = (   0.707107   0.707107   0.000000 )  

     reciprocal axes: (cart. coord. in units 2 pi/alat)
               b(1) = ( -0.707107  0.707107  0.707107 )  
               b(2) = (  0.707107 -0.707107  0.707107 )  
               b(3) = (  0.707107  0.707107 -0.707107 )  


     PseudoPot. # 1 for Ge read from file:
     /home/bond/Software/QE/qe-7.4.1/pseudo/ge_lda_v1.4.uspp.F.UPF
     MD5 check sum: bf9d52b59cc8a669818bb2b52e0c2ba0
     Pseudo is Ultrasoft + core correction, Zval = 14.0
     Generated by new atomic code, or converted to UPF format
     Using radial grid of  873 points,  6 beta functions with: 
                l(1) =   0
                l(2) =   0
                l(3) =   1
                l(4) =   1
                l(5) =   2
                l(6) =   2
     Q(r) pseudized with  8 coefficients,  rinner =    1.400   1.400   1.400
                                                       1.400   1.400

     atomic species   valence    mass     pseudopotential
     Ge               14.00    72.63000     Ge( 1.00)

      4 Sym. Ops. (no inversion) found



   Cartesian axes

     site n.     atom                  positions (alat units)
         1        Ge     tau(   1) = (   0.0000000   0.0000000   0.0707107  )
         2        Ge     tau(   2) = (   0.3535534   0.3535534   0.3535534  )

     number of k points=     8
                       cart. coord. in units 2pi/alat
        k(    1) = (   0.0000000   0.0000000   0.0000000), wk =   0.0740741
        k(    2) = (   0.2357023   0.2357023  -0.2357023), wk =   0.2962963
        k(    3) = (   0.4714045   0.0000000   0.0000000), wk =   0.2962963
        k(    4) = (  -0.0000000  -0.4714045   0.4714045), wk =   0.5925926
        k(    5) = (   0.2357023  -0.2357023  -0.2357023), wk =   0.2962963
        k(    6) = (   0.0000000   0.0000000   0.4714045), wk =   0.1481481
        k(    7) = (   0.4714045   0.4714045  -0.0000000), wk =   0.1481481
        k(    8) = (  -0.4714045   0.4714045   0.0000000), wk =   0.1481481

     Dense  grid:     6855 G-vectors     FFT dimensions: (  27,  27,  27)

     Estimated max dynamical RAM per process >      28.20 MB

     Check: negative core charge=   -0.000124

     Initial potential from superposition of free atoms

     starting charge      27.9986, renormalised to      28.0000
     Starting wfcs are   18 randomized atomic wfcs

     total cpu time spent up to now is        0.6 secs

     Self-consistent Calculation

     iteration #  1     ecut=    30.00 Ry     beta= 0.50
     Davidson diagonalization with overlap
     ethr =  1.00E-02,  avg # of iterations =  1.9

     Threshold (ethr) on eigenvalues was too large:
     Diagonalizing with lowered threshold

     Davidson diagonalization with overlap
     ethr =  1.66E-04,  avg # of iterations =  1.8

     total cpu time spent up to now is        1.1 secs

     total energy              =    -426.05351028 Ry
     estimated scf accuracy    <       0.04872074 Ry

     iteration #  2     ecut=    30.00 Ry     beta= 0.50
     Davidson diagonalization with overlap
     ethr =  1.74E-04,  avg # of iterations =  1.1

     total cpu time spent up to now is        1.4 secs

     total energy              =    -426.05187781 Ry
     estimated scf accuracy    <       0.00818366 Ry

     iteration #  3     ecut=    30.00 Ry     beta= 0.50
     Davidson diagonalization with overlap
     ethr =  2.92E-05,  avg # of iterations =  2.2

     total cpu time spent up to now is        1.6 secs

     total energy              =    -426.05256514 Ry
     estimated scf accuracy    <       0.00009971 Ry

     iteration #  4     ecut=    30.00 Ry     beta= 0.50
     Davidson diagonalization with overlap
     ethr =  3.56E-07,  avg # of iterations =  3.6

     total cpu time spent up to now is        1.9 secs

     total energy              =    -426.05259977 Ry
     estimated scf accuracy    <       0.00000596 Ry

     iteration #  5     ecut=    30.00 Ry     beta= 0.50
     Davidson diagonalization with overlap
     ethr =  2.13E-08,  avg # of iterations =  2.8

     total cpu time spent up to now is        2.2 secs

     total energy              =    -426.05260120 Ry
     estimated scf accuracy    <       0.00000022 Ry

     iteration #  6     ecut=    30.00 Ry     beta= 0.50
     Davidson diagonalization with overlap
     ethr =  7.90E-10,  avg # of iterations =  4.6

     total cpu time spent up to now is        2.6 secs

     End of self-consistent calculation

          k = 0.0000 0.0000 0.0000 (   869 PWs)   bands (ev):

   -16.8155 -16.8058 -16.7520 -16.7121 -16.6933 -16.5407 -16.5099 -16.5024
   -16.4840 -16.4811  -4.6586   6.9641   8.0637   8.4751

          k = 0.2357 0.2357-0.2357 (   854 PWs)   bands (ev):

   -16.8741 -16.8582 -16.7418 -16.6670 -16.6535 -16.5638 -16.5591 -16.4731
   -16.4421 -16.4095  -3.2925   1.4872   6.6914   7.7696

          k = 0.4714 0.0000 0.0000 (   837 PWs)   bands (ev):

   -16.8680 -16.8593 -16.7321 -16.6345 -16.6327 -16.5950 -16.5609 -16.4892
   -16.4180 -16.4105  -2.9052   1.7489   5.7226   5.8386

          k =-0.0000-0.4714 0.4714 (   856 PWs)   bands (ev):

   -16.8873 -16.8475 -16.6978 -16.6892 -16.6180 -16.5872 -16.5461 -16.5356
   -16.4333 -16.3938  -1.7935   0.3250   3.7444   6.0813

          k = 0.2357-0.2357-0.2357 (   854 PWs)   bands (ev):

   -16.8148 -16.8051 -16.7303 -16.6952 -16.6638 -16.5662 -16.5305 -16.5006
   -16.4733 -16.4729  -3.5345   2.6738   6.1877   7.8002

          k = 0.0000 0.0000 0.4714 (   837 PWs)   bands (ev):

   -16.8185 -16.7939 -16.7071 -16.7003 -16.6723 -16.5706 -16.5104 -16.4972
   -16.4775 -16.4594  -2.9707   2.2216   5.0793   5.9468

          k = 0.4714 0.4714-0.0000 (   856 PWs)   bands (ev):

   -16.8993 -16.8224 -16.7340 -16.6635 -16.6413 -16.5778 -16.5581 -16.4796
   -16.4759 -16.3821  -1.1194  -0.6056   3.5725   6.3472

          k =-0.4714 0.4714 0.0000 (   856 PWs)   bands (ev):

   -16.8217 -16.7985 -16.7013 -16.6896 -16.6646 -16.5672 -16.5558 -16.5253
   -16.4648 -16.4558  -2.2282   1.3568   3.9557   5.3037

     highest occupied level (ev):     8.4751

!    total energy              =    -426.05260128 Ry
     estimated scf accuracy    <       0.00000005 Ry

     The total energy is the sum of the following terms:
     one-electron contribution =    -280.48145803 Ry
     hartree contribution      =     165.71143182 Ry
     xc contribution           =    -114.53335700 Ry
     ewald contribution        =    -196.74921808 Ry

     convergence has been achieved in   6 iterations

     Forces acting on atoms (cartesian axes, Ry/au):

     atom    1 type  1   force =     0.00000000    0.00000000   -0.11867259
     atom    2 type  1   force =     0.00000000    0.00000000    0.11867259

     Total force =     0.167828     Total SCF correction =     0.001726


     Computing stress (Cartesian axis) and pressure

          total   stress  (Ry/bohr**3)                   (kbar)     P=     -101.18
  -0.00064396   0.00055002   0.00000000          -94.73       80.91        0.00
   0.00055002  -0.00064396  -0.00000000           80.91      -94.73       -0.00
   0.00000000  -0.00000000  -0.00077551            0.00       -0.00     -114.08

     Message from routine punch:
     Nothing written, as per user request (disk_io='none')

     init_run     :      0.45s CPU      0.47s WALL (       1 calls)
     electrons    :      1.92s CPU      1.94s WALL (       1 calls)
     forces       :      0.04s CPU      0.04s WALL (       1 calls)
     stress       :      0.33s CPU      0.33s WALL (       1 calls)

     Called by init_run:
     wfcinit      :      0.15s CPU      0.15s WALL (       1 calls)
     potinit      :      0.01s CPU      0.01s WALL (       1 calls)
     hinit0       :      0.26s CPU      0.26s WALL (       1 calls)

     Called by electrons:
     c_bands      :      1.33s CPU      1.35s WALL (       7 calls)
     sum_band     :      0.43s CPU      0.44s WALL (       7 calls)
     v_of_rho     :      0.01s CPU      0.01s WALL (       7 calls)
     newd         :      0.16s CPU      0.18s WALL (       7 calls)
     mix_rho      :      0.01s CPU      0.01s WALL (       7 calls)

     Called by c_bands:
     init_us_2    :      0.05s CPU      0.05s WALL (     136 calls)
     cegterg      :      1.23s CPU      1.24s WALL (      56 calls)

     Called by *egterg:
     cdiaghg      :      0.05s CPU      0.05s WALL (     192 calls)
     h_psi        :      1.18s CPU      1.19s WALL (     208 calls)
     s_psi        :      0.02s CPU      0.02s WALL (     208 calls)
     g_psi        :      0.01s CPU      0.01s WALL (     144 calls)

     Called by h_psi:
     h_psi:calbec :      0.03s CPU      0.03s WALL (     208 calls)
     vloc_psi     :      1.12s CPU      1.13s WALL (     208 calls)
     add_vuspsi   :      0.02s CPU      0.03s WALL (     208 calls)

     General routines
     calbec       :      0.06s CPU      0.06s WALL (     400 calls)
     fft          :      0.09s CPU      0.09s WALL (      37 calls)
     ffts         :      0.00s CPU      0.00s WALL (       7 calls)
     fftw         :      1.19s CPU      1.20s WALL (    5068 calls)

     Parallel routines

     PWSCF        :      2.88s CPU      2.94s WALL


   This run was terminated on:   0:39:22   8Oct2025            

=------------------------------------------------------------------------------=
   JOB DONE.
=------------------------------------------------------------------------------=
