
     Program PWSCF v.7.4.1 starts on  8Oct2025 at 21:39:32 

     This program is part of the open-source Quantum ESPRESSO suite
     for quantum simulation of materials; please cite
         "P. Giannozzi et al., J. Phys.:Condens. Matter 21 395502 (2009);
         "P. Giannozzi et al., J. Phys.:Condens. Matter 29 465901 (2017);
         "P. Giannozzi et al., J. Chem. Phys. 152 154105 (2020);
          URL http://www.quantum-espresso.org", 
     in publications or presentations arising from this work. More details at
     http://www.quantum-espresso.org/quote

     Parallel version (MPI), running on     1 processors

     MPI processes distributed on     1 nodes
     654 MiB available memory on the printing compute node when the environment starts

     Waiting for input...
     Reading input from standard input
Warning: card &CELL ignored
Warning: card / ignored

     Current dimensions of program PWSCF are:
     Max number of different atomic species (ntypx) = 10
     Max number of k-points (npk) =  40000
     Max angular momentum in pseudopotentials (lmaxx) =  4
     Message from routine find_sym:
     Not a group! Trying with lower acceptance parameter...
     Message from routine find_sym:
     Still not a group! symmetry disabled

     Subspace diagonalization in iterative solution of the eigenvalue problem:
     a serial algorithm will be used


     G-vector sticks info
     --------------------
     sticks:   dense  smooth     PW     G-vecs:    dense   smooth      PW
     Sum         517     517    163                 7943     7943    1459

     Using Slab Decomposition



     bravais-lattice index     =            0
     lattice parameter (alat)  =       7.3939  a.u.
     unit-cell volume          =     285.8230 (a.u.)^3
     number of atoms/cell      =            2
     number of atomic types    =            1
     number of electrons       =        28.00
     number of Kohn-Sham states=           14
     kinetic-energy cutoff     =      35.0000  Ry
     charge density cutoff     =     140.0000  Ry
     scf convergence threshold =      1.0E-07
     mixing beta               =       0.5000
     number of iterations used =            8  plain     mixing
     Exchange-correlation=  SLA  PZ   NOGX NOGC
                           (   1   1   0   0   0   0   0)

     celldm(1)=   7.393851  celldm(2)=   0.000000  celldm(3)=   0.000000
     celldm(4)=   0.000000  celldm(5)=   0.000000  celldm(6)=   0.000000

     crystal axes: (cart. coord. in units of alat)
               a(1) = (   0.000000   0.707107   0.707107 )  
               a(2) = (   0.707107   0.000000   0.707107 )  
               a(3) = (   0.707107   0.707107   0.000000 )  

     reciprocal axes: (cart. coord. in units 2 pi/alat)
               b(1) = ( -0.707107  0.707107  0.707107 )  
               b(2) = (  0.707107 -0.707107  0.707107 )  
               b(3) = (  0.707107  0.707107 -0.707107 )  


     PseudoPot. # 1 for Ge read from file:
     /home/bond/Software/QE/qe-7.4.1/pseudo/ge_lda_v1.4.uspp.F.UPF
     MD5 check sum: bf9d52b59cc8a669818bb2b52e0c2ba0
     Pseudo is Ultrasoft + core correction, Zval = 14.0
     Generated by new atomic code, or converted to UPF format
     Using radial grid of  873 points,  6 beta functions with: 
                l(1) =   0
                l(2) =   0
                l(3) =   1
                l(4) =   1
                l(5) =   2
                l(6) =   2
     Q(r) pseudized with  8 coefficients,  rinner =    1.400   1.400   1.400
                                                       1.400   1.400

     atomic species   valence    mass     pseudopotential
     Ge               14.00    72.63000     Ge( 1.00)

     No symmetry found



   Cartesian axes

     site n.     atom                  positions (alat units)
         1        Ge     tau(   1) = (   0.0000000   0.0000000   0.0000000  )
         2        Ge     tau(   2) = (   0.3535525   0.3535525   0.3535525  )

     number of k points=   504

     Number of k-points >= 100: set verbosity='high' to print them.

     Dense  grid:     7943 G-vectors     FFT dimensions: (  32,  32,  32)

     Estimated max dynamical RAM per process >     139.19 MB

     Check: negative core charge=   -0.000016

     Initial potential from superposition of free atoms

     starting charge      27.9986, renormalised to      28.0000
     Starting wfcs are   18 randomized atomic wfcs

     total cpu time spent up to now is        4.8 secs

     Self-consistent Calculation

     iteration #  1     ecut=    35.00 Ry     beta= 0.50
     Davidson diagonalization with overlap
     ethr =  1.00E-02,  avg # of iterations =  1.9

     Threshold (ethr) on eigenvalues was too large:
     Diagonalizing with lowered threshold

     Davidson diagonalization with overlap
     ethr =  1.31E-04,  avg # of iterations =  2.0

     total cpu time spent up to now is       21.9 secs

     total energy              =    -426.16840754 Ry
     estimated scf accuracy    <       0.03847869 Ry

     iteration #  2     ecut=    35.00 Ry     beta= 0.50
     Davidson diagonalization with overlap
     ethr =  1.37E-04,  avg # of iterations =  1.0

     total cpu time spent up to now is       29.9 secs

     total energy              =    -426.16698948 Ry
     estimated scf accuracy    <       0.00658089 Ry

     iteration #  3     ecut=    35.00 Ry     beta= 0.50
     Davidson diagonalization with overlap
     ethr =  2.35E-05,  avg # of iterations =  2.0

     total cpu time spent up to now is       38.8 secs

     total energy              =    -426.16751420 Ry
     estimated scf accuracy    <       0.00007380 Ry

     iteration #  4     ecut=    35.00 Ry     beta= 0.50
     Davidson diagonalization with overlap
     ethr =  2.64E-07,  avg # of iterations =  3.4

     total cpu time spent up to now is       50.3 secs

     total energy              =    -426.16753840 Ry
     estimated scf accuracy    <       0.00000273 Ry

     iteration #  5     ecut=    35.00 Ry     beta= 0.50
     Davidson diagonalization with overlap
     ethr =  9.74E-09,  avg # of iterations =  3.5

     total cpu time spent up to now is       61.6 secs

     total energy              =    -426.16753929 Ry
     estimated scf accuracy    <       0.00000014 Ry

     iteration #  6     ecut=    35.00 Ry     beta= 0.50
     Davidson diagonalization with overlap
     ethr =  4.91E-10,  avg # of iterations =  3.1

     total cpu time spent up to now is       72.9 secs

     End of self-consistent calculation

     Number of k-points >= 100: set verbosity='high' to print the bands.

     highest occupied level (ev):     9.0574

!    total energy              =    -426.16753933 Ry
     estimated scf accuracy    <       0.00000003 Ry

     The total energy is the sum of the following terms:
     one-electron contribution =    -271.77741969 Ry
     hartree contribution      =     162.17384305 Ry
     xc contribution           =    -114.61991332 Ry
     ewald contribution        =    -201.94404937 Ry

     convergence has been achieved in   6 iterations

     Forces acting on atoms (cartesian axes, Ry/au):

     atom    1 type  1   force =     0.00000076   -0.00000180   -0.00000130
     atom    2 type  1   force =    -0.00000076    0.00000180    0.00000130

     Total force =     0.000003     Total SCF correction =     0.000020
     SCF correction compared to forces is large: reduce conv_thr to get better values


     Computing stress (Cartesian axis) and pressure

          total   stress  (Ry/bohr**3)                   (kbar)     P=       25.13
   0.00017086   0.00000001   0.00000001           25.13        0.00        0.00
   0.00000001   0.00017086   0.00000001            0.00       25.13        0.00
   0.00000001   0.00000001   0.00017086            0.00        0.00       25.13

     Message from routine punch:
     Nothing written, as per user request (disk_io='none')

     init_run     :      4.54s CPU      4.68s WALL (       1 calls)
     electrons    :     66.94s CPU     68.13s WALL (       1 calls)
     forces       :      0.54s CPU      0.54s WALL (       1 calls)
     stress       :      2.85s CPU      2.86s WALL (       1 calls)

     Called by init_run:
     wfcinit      :      4.18s CPU      4.31s WALL (       1 calls)
     potinit      :      0.01s CPU      0.01s WALL (       1 calls)
     hinit0       :      0.28s CPU      0.28s WALL (       1 calls)

     Called by electrons:
     c_bands      :     57.08s CPU     58.13s WALL (       7 calls)
     sum_band     :      9.73s CPU      9.86s WALL (       7 calls)
     v_of_rho     :      0.01s CPU      0.01s WALL (       7 calls)
     newd         :      0.14s CPU      0.15s WALL (       7 calls)
     mix_rho      :      0.00s CPU      0.00s WALL (       7 calls)

     Called by c_bands:
     init_us_2    :      2.13s CPU      2.17s WALL (    8568 calls)
     cegterg      :     51.91s CPU     52.81s WALL (    3528 calls)

     Called by *egterg:
     cdiaghg      :      2.12s CPU      2.15s WALL (   11588 calls)
     h_psi        :     46.64s CPU     47.52s WALL (   12596 calls)
     s_psi        :      1.24s CPU      1.26s WALL (   12596 calls)
     g_psi        :      0.32s CPU      0.32s WALL (    8564 calls)

     Called by h_psi:
     h_psi:calbec :      1.60s CPU      1.63s WALL (   12596 calls)
     vloc_psi     :     43.38s CPU     44.20s WALL (   12596 calls)
     add_vuspsi   :      1.31s CPU      1.34s WALL (   12596 calls)

     General routines
     calbec       :      3.01s CPU      3.05s WALL (   24692 calls)
     fft          :      0.14s CPU      0.14s WALL (      37 calls)
     ffts         :      0.00s CPU      0.00s WALL (       7 calls)
     fftw         :     43.30s CPU     44.08s WALL (  318852 calls)

     Parallel routines

     PWSCF        :   1m14.96s CPU   1m16.31s WALL


   This run was terminated on:  21:40:49   8Oct2025            

=------------------------------------------------------------------------------=
   JOB DONE.
=------------------------------------------------------------------------------=
