
     Program PWSCF v.7.4.1 starts on 20Oct2025 at 22: 8:34 

     This program is part of the open-source Quantum ESPRESSO suite
     for quantum simulation of materials; please cite
         "P. Giannozzi et al., J. Phys.:Condens. Matter 21 395502 (2009);
         "P. Giannozzi et al., J. Phys.:Condens. Matter 29 465901 (2017);
         "P. Giannozzi et al., J. Chem. Phys. 152 154105 (2020);
          URL http://www.quantum-espresso.org", 
     in publications or presentations arising from this work. More details at
     http://www.quantum-espresso.org/quote

     Parallel version (MPI), running on     2 processors

     MPI processes distributed on     1 nodes
     181 MiB available memory on the printing compute node when the environment starts

     Waiting for input...
     Reading input from standard input
Warning: card &CELL ignored
Warning: card / ignored

     Current dimensions of program PWSCF are:
     Max number of different atomic species (ntypx) = 10
     Max number of k-points (npk) =  40000
     Max angular momentum in pseudopotentials (lmaxx) =  4
     file Fe.pbe-nd-rrkjus.UPF: wavefunction(s)  4S renormalized
     Message from routine find_sym:
     Not a group! Trying with lower acceptance parameter...
     Message from routine find_sym:
     Symmetry operations form a group
     Message from routine setup:
     using ibrav=0 with symmetry is DISCOURAGED, use correct ibrav instead

     R & G space division:  proc/nbgrp/npool/nimage =       2
     Subspace diagonalization in iterative solution of the eigenvalue problem:
     a serial algorithm will be used


     Parallelization info
     --------------------
     sticks:   dense  smooth     PW     G-vecs:    dense   smooth      PW
     Min         230      93     30                 6925     1737     356
     Max         233      94     31                 6926     1742     357
     Sum         463     187     61                13851     3479     713

     Using Slab Decomposition



     bravais-lattice index     =            0
     lattice parameter (alat)  =       4.7243  a.u.
     unit-cell volume          =     158.6160 (a.u.)^3
     number of atoms/cell      =            2
     number of atomic types    =            1
     number of electrons       =        16.00
     number of Kohn-Sham states=           12
     kinetic-energy cutoff     =      30.0000  Ry
     charge density cutoff     =     300.0000  Ry
     scf convergence threshold =      1.0E-07
     mixing beta               =       0.5000
     number of iterations used =            8  plain     mixing
     Exchange-correlation=  SLA  PW   PBE  PBE
                           (   1   4   3   4   0   0   0)

     celldm(1)=   4.724315  celldm(2)=   0.000000  celldm(3)=   0.000000
     celldm(4)=   0.000000  celldm(5)=   0.000000  celldm(6)=   0.000000

     crystal axes: (cart. coord. in units of alat)
               a(1) = (   1.000000   0.000000   0.000000 )  
               a(2) = (  -0.500000   0.866025   0.000000 )  
               a(3) = (   0.000000   0.000000   1.737000 )  

     reciprocal axes: (cart. coord. in units 2 pi/alat)
               b(1) = (  1.000000  0.577350 -0.000000 )  
               b(2) = (  0.000000  1.154701  0.000000 )  
               b(3) = (  0.000000 -0.000000  0.575705 )  


     PseudoPot. # 1 for Fe read from file:
     /home/bond/Software/QE/qe-7.4.1/pseudo/Fe.pbe-nd-rrkjus.UPF
     MD5 check sum: 398036227a04b607635f6f5e8dfd8242
     Pseudo is Ultrasoft + core correction, Zval =  8.0
     Generated by new atomic code, or converted to UPF format
     Using radial grid of  957 points,  6 beta functions with: 
                l(1) =   0
                l(2) =   0
                l(3) =   1
                l(4) =   1
                l(5) =   2
                l(6) =   2
     Q(r) pseudized with 0 coefficients 


     atomic species   valence    mass     pseudopotential
     Fe                8.00    55.84500     Fe( 1.00)

     Starting magnetic structure 
     atomic species   magnetization
     Fe              0.700

      4 Sym. Ops. (no inversion) found



   Cartesian axes

     site n.     atom                  positions (alat units)
         1        Fe     tau(   1) = (   0.0000000   0.0000000   0.0000000  )
         2        Fe     tau(   2) = (   0.0000000   0.5773520   0.8685000  )

     number of k points=   228  Methfessel-Paxton smearing, width (Ry)=  0.0200

     Number of k-points >= 100: set verbosity='high' to print them.

     Dense  grid:    13851 G-vectors     FFT dimensions: (  27,  27,  45)

     Smooth grid:     3479 G-vectors     FFT dimensions: (  18,  18,  30)

     Estimated max dynamical RAM per process >      48.06 MB

     Estimated total dynamical RAM >      96.13 MB

     Check: negative core charge=   -0.000004
     Generating pointlists ...
     new r_m :   0.4125 (alat units)  1.9488 (a.u.) for type    1

     Initial potential from superposition of free atoms

     starting charge      15.9987, renormalised to      16.0000
     Starting wfcs are   12 randomized atomic wfcs

     total cpu time spent up to now is        2.4 secs

     Self-consistent Calculation

     iteration #  1     ecut=    30.00 Ry     beta= 0.50
     Davidson diagonalization with overlap
     ethr =  1.00E-02,  avg # of iterations =  4.0

     total cpu time spent up to now is        8.5 secs

     total energy              =    -111.37141488 Ry
     estimated scf accuracy    <       0.52362725 Ry

     total magnetization       =     6.47 Bohr mag/cell
     absolute magnetization    =     6.47 Bohr mag/cell

     iteration #  2     ecut=    30.00 Ry     beta= 0.50
     Davidson diagonalization with overlap
     ethr =  3.27E-03,  avg # of iterations =  2.0

     total cpu time spent up to now is       13.3 secs

     total energy              =    -111.54099053 Ry
     estimated scf accuracy    <       0.04856682 Ry

     total magnetization       =     5.77 Bohr mag/cell
     absolute magnetization    =     5.79 Bohr mag/cell

     iteration #  3     ecut=    30.00 Ry     beta= 0.50
     Davidson diagonalization with overlap
     ethr =  3.04E-04,  avg # of iterations =  1.6

     total cpu time spent up to now is       17.4 secs

     total energy              =    -111.57111715 Ry
     estimated scf accuracy    <       0.01155818 Ry

     total magnetization       =     5.67 Bohr mag/cell
     absolute magnetization    =     5.72 Bohr mag/cell

     iteration #  4     ecut=    30.00 Ry     beta= 0.50
     Davidson diagonalization with overlap
     ethr =  7.22E-05,  avg # of iterations =  2.0

     total cpu time spent up to now is       21.8 secs

     total energy              =    -111.57837209 Ry
     estimated scf accuracy    <       0.00449487 Ry

     total magnetization       =     5.22 Bohr mag/cell
     absolute magnetization    =     5.40 Bohr mag/cell

     iteration #  5     ecut=    30.00 Ry     beta= 0.50
     Davidson diagonalization with overlap
     ethr =  2.81E-05,  avg # of iterations =  1.2

     total cpu time spent up to now is       25.7 secs

     total energy              =    -111.57913805 Ry
     estimated scf accuracy    <       0.00117500 Ry

     total magnetization       =     5.21 Bohr mag/cell
     absolute magnetization    =     5.39 Bohr mag/cell

     iteration #  6     ecut=    30.00 Ry     beta= 0.50
     Davidson diagonalization with overlap
     ethr =  7.34E-06,  avg # of iterations =  1.9

     total cpu time spent up to now is       30.0 secs

     total energy              =    -111.57941972 Ry
     estimated scf accuracy    <       0.00012890 Ry

     total magnetization       =     5.18 Bohr mag/cell
     absolute magnetization    =     5.38 Bohr mag/cell

     iteration #  7     ecut=    30.00 Ry     beta= 0.50
     Davidson diagonalization with overlap
     ethr =  8.06E-07,  avg # of iterations =  4.0

     total cpu time spent up to now is       35.8 secs

     total energy              =    -111.57946616 Ry
     estimated scf accuracy    <       0.00002794 Ry

     total magnetization       =     5.17 Bohr mag/cell
     absolute magnetization    =     5.38 Bohr mag/cell

     iteration #  8     ecut=    30.00 Ry     beta= 0.50
     Davidson diagonalization with overlap
     ethr =  1.75E-07,  avg # of iterations =  5.0

     total cpu time spent up to now is       42.4 secs

     total energy              =    -111.57949049 Ry
     estimated scf accuracy    <       0.00004130 Ry

     total magnetization       =     5.17 Bohr mag/cell
     absolute magnetization    =     5.38 Bohr mag/cell

     iteration #  9     ecut=    30.00 Ry     beta= 0.50
     Davidson diagonalization with overlap
     ethr =  1.75E-07,  avg # of iterations =  2.1

     total cpu time spent up to now is       47.0 secs

     total energy              =    -111.57950116 Ry
     estimated scf accuracy    <       0.00000062 Ry

     total magnetization       =     5.17 Bohr mag/cell
     absolute magnetization    =     5.38 Bohr mag/cell

     iteration # 10     ecut=    30.00 Ry     beta= 0.50
     Davidson diagonalization with overlap
     ethr =  3.86E-09,  avg # of iterations =  7.7

     total cpu time spent up to now is       56.7 secs

     total energy              =    -111.57950327 Ry
     estimated scf accuracy    <       0.00000103 Ry

     total magnetization       =     5.17 Bohr mag/cell
     absolute magnetization    =     5.38 Bohr mag/cell

     iteration # 11     ecut=    30.00 Ry     beta= 0.50
     Davidson diagonalization with overlap
     ethr =  3.86E-09,  avg # of iterations =  1.9

     Magnetic moment per site  (integrated on atomic sphere of radius R)
     atom   1 (R=0.412)  charge=  6.5305  magn=  2.6220
     atom   2 (R=0.412)  charge=  6.5313  magn=  2.6222

     total cpu time spent up to now is       61.7 secs

     End of self-consistent calculation

     Number of k-points >= 100: set verbosity='high' to print the bands.

     the Fermi energy is    13.2758 ev

!    total energy              =    -111.57950339 Ry
     estimated scf accuracy    <       0.00000007 Ry
     smearing contrib. (-TS)   =       0.00027200 Ry
     internal energy E=F+TS    =    -111.57977539 Ry

     The total energy is F=E-TS. E is the sum of the following terms:
     one-electron contribution =      13.86733977 Ry
     hartree contribution      =      13.50797761 Ry
     xc contribution           =     -52.95691853 Ry
     ewald contribution        =     -85.99817425 Ry

     total magnetization       =     5.17 Bohr mag/cell
     absolute magnetization    =     5.38 Bohr mag/cell

     convergence has been achieved in  11 iterations

     Forces acting on atoms (cartesian axes, Ry/au):

     atom    1 type  1   force =     0.00000000   -0.00000025    0.00000000
     atom    2 type  1   force =     0.00000000    0.00000025    0.00000000

     Total force =     0.000000     Total SCF correction =     0.000001
     SCF correction compared to forces is large: reduce conv_thr to get better values


     Computing stress (Cartesian axis) and pressure

          total   stress  (Ry/bohr**3)                   (kbar)     P=       60.93
   0.00041081   0.00000000   0.00000000           60.43        0.00        0.00
   0.00000000   0.00041080  -0.00000000            0.00       60.43       -0.00
   0.00000000  -0.00000000   0.00042096            0.00       -0.00       61.93

     Message from routine punch:
     Nothing written, as per user request (disk_io='none')

     init_run     :      2.06s CPU      2.25s WALL (       1 calls)
     electrons    :     55.92s CPU     59.22s WALL (       1 calls)
     forces       :      0.41s CPU      0.42s WALL (       1 calls)
     stress       :      1.63s CPU      1.69s WALL (       1 calls)

     Called by init_run:
     wfcinit      :      1.56s CPU      1.71s WALL (       1 calls)
     potinit      :      0.17s CPU      0.19s WALL (       1 calls)
     hinit0       :      0.25s CPU      0.26s WALL (       1 calls)

     Called by electrons:
     c_bands      :     47.61s CPU     50.37s WALL (      11 calls)
     sum_band     :      7.61s CPU      8.12s WALL (      11 calls)
     v_of_rho     :      0.32s CPU      0.35s WALL (      12 calls)
     newd         :      0.40s CPU      0.42s WALL (      12 calls)
     mix_rho      :      0.03s CPU      0.03s WALL (      11 calls)

     Called by c_bands:
     init_us_2    :      1.14s CPU      1.23s WALL (   11400 calls)
     cegterg      :     44.72s CPU     47.26s WALL (    5016 calls)

     Called by *egterg:
     cdiaghg      :      4.20s CPU      4.50s WALL (   20216 calls)
     h_psi        :     37.09s CPU     39.17s WALL (   20672 calls)
     s_psi        :      0.65s CPU      0.68s WALL (   20672 calls)
     g_psi        :      0.15s CPU      0.17s WALL (   15200 calls)

     Called by h_psi:
     h_psi:calbec :      1.62s CPU      1.74s WALL (   20672 calls)
     vloc_psi     :     34.36s CPU     36.27s WALL (   20672 calls)
     add_vuspsi   :      0.76s CPU      0.80s WALL (   20672 calls)

     General routines
     calbec       :      2.54s CPU      2.71s WALL (   33440 calls)
     fft          :      0.28s CPU      0.29s WALL (     338 calls)
     ffts         :      0.12s CPU      0.13s WALL (      46 calls)
     fftw         :     34.98s CPU     37.06s WALL (  411654 calls)
     interpolate  :      0.13s CPU      0.14s WALL (      24 calls)

     Parallel routines

     PWSCF        :   1m 0.18s CPU   1m 3.78s WALL


   This run was terminated on:  22: 9:38  20Oct2025            

=------------------------------------------------------------------------------=
   JOB DONE.
=------------------------------------------------------------------------------=
