
     Program PWSCF v.7.4.1 starts on  7Oct2025 at 23:58:32 

     This program is part of the open-source Quantum ESPRESSO suite
     for quantum simulation of materials; please cite
         "P. Giannozzi et al., J. Phys.:Condens. Matter 21 395502 (2009);
         "P. Giannozzi et al., J. Phys.:Condens. Matter 29 465901 (2017);
         "P. Giannozzi et al., J. Chem. Phys. 152 154105 (2020);
          URL http://www.quantum-espresso.org", 
     in publications or presentations arising from this work. More details at
     http://www.quantum-espresso.org/quote

     Parallel version (MPI), running on     1 processors

     MPI processes distributed on     1 nodes
     251 MiB available memory on the printing compute node when the environment starts

     Waiting for input...
     Reading input from standard input
Warning: card &CELL ignored
Warning: card / ignored

     Current dimensions of program PWSCF are:
     Max number of different atomic species (ntypx) = 10
     Max number of k-points (npk) =  40000
     Max angular momentum in pseudopotentials (lmaxx) =  4
     Message from routine setup:
     using ibrav=0 with symmetry is DISCOURAGED, use correct ibrav instead

     Subspace diagonalization in iterative solution of the eigenvalue problem:
     a serial algorithm will be used


     G-vector sticks info
     --------------------
     sticks:   dense  smooth     PW     G-vecs:    dense   smooth      PW
     Sum        1261    1261    361                29603    29603    4573

     Using Slab Decomposition



     bravais-lattice index     =            0
     lattice parameter (alat)  =       7.5604  a.u.
     unit-cell volume          =     305.5804 (a.u.)^3
     number of atoms/cell      =            2
     number of atomic types    =            1
     number of electrons       =        28.00
     number of Kohn-Sham states=           14
     kinetic-energy cutoff     =      80.0000  Ry
     charge density cutoff     =     320.0000  Ry
     scf convergence threshold =      1.0E-07
     mixing beta               =       0.5000
     number of iterations used =            8  plain     mixing
     Exchange-correlation=  SLA  PZ   NOGX NOGC
                           (   1   1   0   0   0   0   0)

     celldm(1)=   7.560435  celldm(2)=   0.000000  celldm(3)=   0.000000
     celldm(4)=   0.000000  celldm(5)=   0.000000  celldm(6)=   0.000000

     crystal axes: (cart. coord. in units of alat)
               a(1) = (   0.000000   0.707107   0.707107 )  
               a(2) = (   0.707107   0.000000   0.707107 )  
               a(3) = (   0.707107   0.707107   0.000000 )  

     reciprocal axes: (cart. coord. in units 2 pi/alat)
               b(1) = ( -0.707107  0.707107  0.707107 )  
               b(2) = (  0.707107 -0.707107  0.707107 )  
               b(3) = (  0.707107  0.707107 -0.707107 )  


     PseudoPot. # 1 for Ge read from file:
     /home/bond/Software/QE/qe-7.4.1/pseudo/ge_lda_v1.4.uspp.F.UPF
     MD5 check sum: bf9d52b59cc8a669818bb2b52e0c2ba0
     Pseudo is Ultrasoft + core correction, Zval = 14.0
     Generated by new atomic code, or converted to UPF format
     Using radial grid of  873 points,  6 beta functions with: 
                l(1) =   0
                l(2) =   0
                l(3) =   1
                l(4) =   1
                l(5) =   2
                l(6) =   2
     Q(r) pseudized with  8 coefficients,  rinner =    1.400   1.400   1.400
                                                       1.400   1.400

     atomic species   valence    mass     pseudopotential
     Ge               14.00    72.63000     Ge( 1.00)

     48 Sym. Ops., with inversion, found (24 have fractional translation)



   Cartesian axes

     site n.     atom                  positions (alat units)
         1        Ge     tau(   1) = (   0.0000000   0.0000000   0.0000000  )
         2        Ge     tau(   2) = (   0.3535534   0.3535534   0.3535534  )

     number of k points=     8
                       cart. coord. in units 2pi/alat
        k(    1) = (   0.0000000   0.0000000   0.0000000), wk =   0.0312500
        k(    2) = (   0.1767767   0.1767767  -0.1767767), wk =   0.2500000
        k(    3) = (  -0.3535534  -0.3535534   0.3535534), wk =   0.1250000
        k(    4) = (   0.3535534   0.0000000   0.0000000), wk =   0.1875000
        k(    5) = (  -0.1767767  -0.5303301   0.5303301), wk =   0.7500000
        k(    6) = (   0.0000000  -0.3535534   0.3535534), wk =   0.3750000
        k(    7) = (  -0.7071068   0.0000000   0.0000000), wk =   0.0937500
        k(    8) = (  -0.7071068   0.3535534   0.0000000), wk =   0.1875000

     Dense  grid:    29603 G-vectors     FFT dimensions: (  48,  48,  48)

     Estimated max dynamical RAM per process >     121.26 MB

     Check: negative core charge=   -0.000001

     Initial potential from superposition of free atoms

     starting charge      27.9986, renormalised to      28.0000
     Starting wfcs are   18 randomized atomic wfcs

     total cpu time spent up to now is        1.6 secs

     Self-consistent Calculation

     iteration #  1     ecut=    80.00 Ry     beta= 0.50
     Davidson diagonalization with overlap
     ethr =  1.00E-02,  avg # of iterations =  1.6

     Threshold (ethr) on eigenvalues was too large:
     Diagonalizing with lowered threshold

     Davidson diagonalization with overlap
     ethr =  1.29E-04,  avg # of iterations =  2.0

     total cpu time spent up to now is        3.7 secs

     total energy              =    -426.15288191 Ry
     estimated scf accuracy    <       0.03932486 Ry

     iteration #  2     ecut=    80.00 Ry     beta= 0.50
     Davidson diagonalization with overlap
     ethr =  1.40E-04,  avg # of iterations =  1.1

     total cpu time spent up to now is        4.7 secs

     total energy              =    -426.15133938 Ry
     estimated scf accuracy    <       0.00697333 Ry

     iteration #  3     ecut=    80.00 Ry     beta= 0.50
     Davidson diagonalization with overlap
     ethr =  2.49E-05,  avg # of iterations =  2.0

     total cpu time spent up to now is        5.8 secs

     total energy              =    -426.15184269 Ry
     estimated scf accuracy    <       0.00007504 Ry

     iteration #  4     ecut=    80.00 Ry     beta= 0.50
     Davidson diagonalization with overlap
     ethr =  2.68E-07,  avg # of iterations =  3.8

     total cpu time spent up to now is        7.1 secs

     total energy              =    -426.15186272 Ry
     estimated scf accuracy    <       0.00000335 Ry

     iteration #  5     ecut=    80.00 Ry     beta= 0.50
     Davidson diagonalization with overlap
     ethr =  1.19E-08,  avg # of iterations =  2.9

     total cpu time spent up to now is        8.5 secs

     total energy              =    -426.15186363 Ry
     estimated scf accuracy    <       0.00000016 Ry

     iteration #  6     ecut=    80.00 Ry     beta= 0.50
     Davidson diagonalization with overlap
     ethr =  5.67E-10,  avg # of iterations =  3.5

     total cpu time spent up to now is        9.9 secs

     End of self-consistent calculation

          k = 0.0000 0.0000 0.0000 (  3695 PWs)   bands (ev):

   -16.6786 -16.6786 -16.6786 -16.6425 -16.6425 -16.4313 -16.4313 -16.4313
   -16.4180 -16.4180  -4.6287   8.0075   8.1965   8.1965

          k = 0.1768 0.1768-0.1768 (  3693 PWs)   bands (ev):

   -16.6968 -16.6968 -16.6700 -16.6139 -16.6139 -16.4571 -16.4571 -16.4415
   -16.3975 -16.3975  -3.8866   3.4148   7.3105   7.3105

          k =-0.3536-0.3536 0.3536 (  3708 PWs)   bands (ev):

   -16.7031 -16.7031 -16.6610 -16.6006 -16.6006 -16.4659 -16.4659 -16.4520
   -16.3906 -16.3906  -2.5398   0.5411   6.7883   6.7883

          k = 0.3536 0.0000 0.0000 (  3655 PWs)   bands (ev):

   -16.6969 -16.6969 -16.6850 -16.6083 -16.5731 -16.5186 -16.4495 -16.4053
   -16.4027 -16.4027  -3.6188   3.4064   6.1508   6.1508

          k =-0.1768-0.5303 0.5303 (  3685 PWs)   bands (ev):

   -16.7243 -16.7092 -16.6411 -16.5735 -16.5539 -16.5352 -16.4870 -16.4556
   -16.3826 -16.3682  -2.1303   0.7528   4.4377   5.7863

          k = 0.0000-0.3536 0.3536 (  3709 PWs)   bands (ev):

   -16.7194 -16.7120 -16.6347 -16.5981 -16.5706 -16.4986 -16.4792 -16.4661
   -16.3790 -16.3757  -2.7443   1.6071   4.2979   6.6867

          k =-0.7071 0.0000 0.0000 (  3692 PWs)   bands (ev):

   -16.7126 -16.7126 -16.6270 -16.6270 -16.5276 -16.5276 -16.4700 -16.4700
   -16.3766 -16.3766  -0.7472  -0.7472   5.1124   5.1124

          k =-0.7071 0.3536 0.0000 (  3704 PWs)   bands (ev):

   -16.7264 -16.7264 -16.5844 -16.5844 -16.5354 -16.5354 -16.5032 -16.5032
   -16.3644 -16.3644  -0.6493  -0.6493   4.2630   4.2630

     highest occupied level (ev):     8.1965

!    total energy              =    -426.15186367 Ry
     estimated scf accuracy    <       0.00000004 Ry

     The total energy is the sum of the following terms:
     one-electron contribution =    -279.23864329 Ry
     hartree contribution      =     165.13271336 Ry
     xc contribution           =    -114.55145871 Ry
     ewald contribution        =    -197.49447504 Ry

     convergence has been achieved in   6 iterations

     Forces acting on atoms (cartesian axes, Ry/au):

     atom    1 type  1   force =     0.00000000    0.00000000    0.00000000
     atom    2 type  1   force =     0.00000000    0.00000000    0.00000000

     Total force =     0.000000     Total SCF correction =     0.000000


     Computing stress (Cartesian axis) and pressure

          total   stress  (Ry/bohr**3)                   (kbar)     P=       -3.16
  -0.00002150   0.00000000  -0.00000000           -3.16        0.00       -0.00
   0.00000000  -0.00002150   0.00000000            0.00       -3.16        0.00
  -0.00000000   0.00000000  -0.00002150           -0.00        0.00       -3.16

     Message from routine punch:
     Nothing written, as per user request (disk_io='none')

     init_run     :      1.44s CPU      1.49s WALL (       1 calls)
     electrons    :      7.75s CPU      8.23s WALL (       1 calls)
     forces       :      0.16s CPU      0.22s WALL (       1 calls)
     stress       :      1.47s CPU      1.60s WALL (       1 calls)

     Called by init_run:
     wfcinit      :      0.63s CPU      0.63s WALL (       1 calls)
     potinit      :      0.03s CPU      0.04s WALL (       1 calls)
     hinit0       :      0.64s CPU      0.64s WALL (       1 calls)

     Called by electrons:
     c_bands      :      5.28s CPU      5.31s WALL (       7 calls)
     sum_band     :      1.79s CPU      2.04s WALL (       7 calls)
     v_of_rho     :      0.06s CPU      0.06s WALL (       7 calls)
     newd         :      0.70s CPU      0.93s WALL (       7 calls)
     mix_rho      :      0.03s CPU      0.03s WALL (       7 calls)

     Called by c_bands:
     init_us_2    :      0.20s CPU      0.20s WALL (     136 calls)
     cegterg      :      4.88s CPU      4.90s WALL (      56 calls)

     Called by *egterg:
     cdiaghg      :      0.05s CPU      0.05s WALL (     183 calls)
     h_psi        :      4.87s CPU      4.90s WALL (     199 calls)
     s_psi        :      0.10s CPU      0.10s WALL (     199 calls)
     g_psi        :      0.02s CPU      0.02s WALL (     135 calls)

     Called by h_psi:
     h_psi:calbec :      0.13s CPU      0.13s WALL (     199 calls)
     vloc_psi     :      4.60s CPU      4.63s WALL (     199 calls)
     add_vuspsi   :      0.11s CPU      0.11s WALL (     199 calls)

     General routines
     calbec       :      0.25s CPU      0.25s WALL (     391 calls)
     fft          :      0.36s CPU      0.36s WALL (      37 calls)
     ffts         :      0.01s CPU      0.01s WALL (       7 calls)
     fftw         :      4.54s CPU      4.57s WALL (    5028 calls)

     Parallel routines

     PWSCF        :     10.97s CPU     11.68s WALL


   This run was terminated on:  23:58:44   7Oct2025            

=------------------------------------------------------------------------------=
   JOB DONE.
=------------------------------------------------------------------------------=
