LAMMPS (22 Jul 2025 - Update 1)
Reading data file ...
  orthogonal box = (0 0 0) to (77.551443 77.551443 77.551443)
  1 by 1 by 1 MPI processor grid
  reading atoms ...
  27435 atoms
  read_data CPU = 0.079 seconds
Reading eam/alloy potential file /home/bond/Software/LAMMPS/lammps-22Jul2025/potentials/Al_zhou.eam.alloy with DATE: 2007-10-12
WARNING: No fixes with time integration, atoms won't move
For more information see https://docs.lammps.org/err0028 (../verlet.cpp:60)
Neighbor list info ...
  update: every = 1 steps, delay = 0 steps, check = yes
  max neighbors/atom: 2000, page size: 100000
  master list distance cutoff = 12.1025
  ghost atom cutoff = 12.1025
  binsize = 6.05125, bins = 13 13 13
  1 neighbor lists, perpetual/occasional/extra = 1 0 0
  (1) pair eam/alloy, perpetual
      attributes: half, newton on
      pair build: half/bin/atomonly/newton
      stencil: half/bin/3d
      bin: standard
Setting up Verlet run ...
  Unit style    : metal
  Current step  : 0
  Time step     : 0.001
Per MPI rank memory allocation (min/avg/max) = 35.26 | 35.26 | 35.26 Mbytes
   Step         PotEng           Lx             Ly             Lz           Press           Pxx            Pyy            Pzz      
         0  -98216.456      77.551443      77.551443      77.551443     -10.380539     -10.380541     -10.380534     -10.380541    
Loop time of 1.855e-06 on 1 procs for 0 steps with 27435 atoms

215.6% CPU use with 1 MPI tasks x no OpenMP threads

MPI task timing breakdown:
Section |  min time  |  avg time  |  max time  |%varavg| %total
---------------------------------------------------------------
Pair    | 0          | 0          | 0          |   0.0 |  0.00
Neigh   | 0          | 0          | 0          |   0.0 |  0.00
Comm    | 0          | 0          | 0          |   0.0 |  0.00
Output  | 0          | 0          | 0          |   0.0 |  0.00
Modify  | 0          | 0          | 0          |   0.0 |  0.00
Other   |            | 1.855e-06  |            |       |100.00

Nlocal:          27435 ave       27435 max       27435 min
Histogram: 1 0 0 0 0 0 0 0 0 0
Nghost:          31381 ave       31381 max       31381 min
Histogram: 1 0 0 0 0 0 0 0 0 0
Neighs:    5.87088e+06 ave 5.87088e+06 max 5.87088e+06 min
Histogram: 1 0 0 0 0 0 0 0 0 0

Total # of neighbors = 5870876
Ave neighs/atom = 213.9922
Neighbor list builds = 0
Dangerous builds = 0
Setting up cg style minimization ...
  Unit style    : metal
  Current step  : 0
WARNING: Energy due to 1 extra global DOFs will be included in minimizer energies
 (../min.cpp:222)
Per MPI rank memory allocation (min/avg/max) = 39.76 | 39.76 | 39.76 Mbytes
   Step         PotEng           Lx             Ly             Lz           Press           Pxx            Pyy            Pzz      
         0  -98216.456      77.551443      77.551443      77.551443     -10.380539     -10.380541     -10.380534     -10.380541    
         5  -98216.533      77.551115      77.551115      77.551115     -0.14545713    -0.14545843    -0.14545454    -0.14545843   
Loop time of 2.92956 on 1 procs for 5 steps with 27435 atoms

100.0% CPU use with 1 MPI tasks x no OpenMP threads

Minimization stats:
  Stopping criterion = energy tolerance
  Energy initial, next-to-last, final = 
     -98216.4562037165  -98216.5333749817  -98216.5333756656
  Force two-norm initial, final = 9.0994971 0.29680547
  Force max component initial, final = 9.065681 0.12703164
  Final line search alpha, max atom move = 0.0017143934 0.00021778221
  Iterations, force evaluations = 5 10

MPI task timing breakdown:
Section |  min time  |  avg time  |  max time  |%varavg| %total
---------------------------------------------------------------
Pair    | 2.9063     | 2.9063     | 2.9063     |   0.0 | 99.21
Neigh   | 0          | 0          | 0          |   0.0 |  0.00
Comm    | 0.0031176  | 0.0031176  | 0.0031176  |   0.0 |  0.11
Output  | 0          | 0          | 0          |   0.0 |  0.00
Modify  | 0          | 0          | 0          |   0.0 |  0.00
Other   |            | 0.02017    |            |       |  0.69

Nlocal:          27435 ave       27435 max       27435 min
Histogram: 1 0 0 0 0 0 0 0 0 0
Nghost:          31381 ave       31381 max       31381 min
Histogram: 1 0 0 0 0 0 0 0 0 0
Neighs:    5.87088e+06 ave 5.87088e+06 max 5.87088e+06 min
Histogram: 1 0 0 0 0 0 0 0 0 0

Total # of neighbors = 5870876
Ave neighs/atom = 213.9922
Neighbor list builds = 0
Dangerous builds = 0
Total energy (eV) = -98216.5333756656
Number of atoms = 27435
Lattice constant (Angstoms) = 77.5511153774213
Total wall time: 0:00:03
