Header of the LAMMPS data file 

27435 atoms 
1 atom types

0.0 77.55144319240593  xlo xhi
0.0 77.55144319240593  ylo yhi
0.0 77.55144319240593  zlo zhi

Masses 

1  26.9815385

Atoms # atomic 

1 1 0.00000 0.00000 0.00000 
2 1 0.00000 2.04083 2.04083 
3 1 2.04083 2.04083 0.00000 
4 1 0.00000 0.00000 4.08165 
5 1 0.00000 2.04083 6.12248 
6 1 2.04083 0.00000 6.12248 
7 1 2.04083 2.04083 4.08165 
8 1 0.00000 0.00000 8.16331 
9 1 0.00000 2.04083 10.20414 
10 1 2.04083 0.00000 10.20414 
11 1 2.04083 2.04083 8.16331 
12 1 0.00000 0.00000 12.24496 
13 1 0.00000 2.04083 14.28579 
14 1 2.04083 0.00000 14.28579 
15 1 2.04083 2.04083 12.24496 
16 1 0.00000 0.00000 16.32662 
17 1 0.00000 2.04083 18.36745 
18 1 2.04083 0.00000 18.36745 
19 1 2.04083 2.04083 16.32662 
20 1 0.00000 0.00000 20.40827 
21 1 0.00000 2.04083 22.44910 
22 1 2.04083 0.00000 22.44910 
23 1 2.04083 2.04083 20.40827 
24 1 0.00000 0.00000 24.48993 
25 1 0.00000 2.04083 26.53076 
26 1 2.04083 0.00000 26.53076 
27 1 2.04083 2.04083 24.48993 
28 1 0.00000 0.00000 28.57158 
29 1 0.00000 2.04083 30.61241 
30 1 2.04083 0.00000 30.61241 
31 1 2.04083 2.04083 28.57158 
32 1 0.00000 0.00000 32.65324 
33 1 0.00000 2.04083 34.69407 
34 1 2.04083 0.00000 34.69407 
35 1 2.04083 2.04083 32.65324 
36 1 0.00000 0.00000 36.73489 
37 1 0.00000 2.04083 38.77572 
38 1 2.04083 0.00000 38.77572 
39 1 2.04083 2.04083 36.73489 
40 1 0.00000 0.00000 40.81655 
41 1 0.00000 2.04083 42.85738 
42 1 2.04083 0.00000 42.85738 
43 1 2.04083 2.04083 40.81655 
44 1 0.00000 0.00000 44.89820 
45 1 0.00000 2.04083 46.93903 
46 1 2.04083 0.00000 46.93903 
47 1 2.04083 2.04083 44.89820 
48 1 0.00000 0.00000 48.97986 
49 1 0.00000 2.04083 51.02069 
50 1 2.04083 0.00000 51.02069 
51 1 2.04083 2.04083 48.97986 
52 1 0.00000 0.00000 53.06151 
53 1 0.00000 2.04083 55.10234 
54 1 2.04083 0.00000 55.10234 
55 1 2.04083 2.04083 53.06151 
56 1 0.00000 0.00000 57.14317 
57 1 0.00000 2.04083 59.18400 
58 1 2.04083 0.00000 59.18400 
59 1 2.04083 2.04083 57.14317 
60 1 0.00000 0.00000 61.22482 
61 1 0.00000 2.04083 63.26565 
62 1 2.04083 0.00000 63.26565 
63 1 2.04083 2.04083 61.22482 
64 1 0.00000 0.00000 65.30648 
65 1 0.00000 2.04083 67.34731 
66 1 2.04083 0.00000 67.34731 
67 1 2.04083 2.04083 65.30648 
68 1 0.00000 0.00000 69.38813 
69 1 0.00000 2.04083 71.42896 
70 1 2.04083 0.00000 71.42896 
71 1 2.04083 2.04083 69.38813 
72 1 0.00000 0.00000 73.46979 
73 1 0.00000 2.04083 75.51062 
74 1 2.04083 0.00000 75.51062 
75 1 2.04083 2.04083 73.46979 
76 1 0.00000 4.08165 0.00000 
77 1 0.00000 6.12248 2.04083 
78 1 2.04083 4.08165 2.04083 
79 1 2.04083 6.12248 0.00000 
80 1 0.00000 4.08165 4.08165 
81 1 0.00000 6.12248 6.12248 
82 1 2.04083 4.08165 6.12248 
83 1 2.04083 6.12248 4.08165 
84 1 0.00000 4.08165 8.16331 
85 1 0.00000 6.12248 10.20414 
86 1 2.04083 4.08165 10.20414 
87 1 2.04083 6.12248 8.16331 
88 1 0.00000 4.08165 12.24496 
89 1 0.00000 6.12248 14.28579 
90 1 2.04083 4.08165 14.28579 
91 1 2.04083 6.12248 12.24496 
92 1 0.00000 4.08165 16.32662 
93 1 0.00000 6.12248 18.36745 
94 1 2.04083 4.08165 18.36745 
95 1 2.04083 6.12248 16.32662 
96 1 0.00000 4.08165 20.40827 
97 1 0.00000 6.12248 22.44910 
98 1 2.04083 4.08165 22.44910 
99 1 2.04083 6.12248 20.40827 
100 1 0.00000 4.08165 24.48993 
101 1 0.00000 6.12248 26.53076 
102 1 2.04083 4.08165 26.53076 
103 1 2.04083 6.12248 24.48993 
104 1 0.00000 4.08165 28.57158 
105 1 0.00000 6.12248 30.61241 
106 1 2.04083 4.08165 30.61241 
107 1 2.04083 6.12248 28.57158 
108 1 0.00000 4.08165 32.65324 
109 1 0.00000 6.12248 34.69407 
110 1 2.04083 4.08165 34.69407 
111 1 2.04083 6.12248 32.65324 
112 1 0.00000 4.08165 36.73489 
113 1 0.00000 6.12248 38.77572 
114 1 2.04083 4.08165 38.77572 
115 1 2.04083 6.12248 36.73489 
116 1 0.00000 4.08165 40.81655 
117 1 0.00000 6.12248 42.85738 
118 1 2.04083 4.08165 42.85738 
119 1 2.04083 6.12248 40.81655 
120 1 0.00000 4.08165 44.89820 
121 1 0.00000 6.12248 46.93903 
122 1 2.04083 4.08165 46.93903 
123 1 2.04083 6.12248 44.89820 
124 1 0.00000 4.08165 48.97986 
125 1 0.00000 6.12248 51.02069 
126 1 2.04083 4.08165 51.02069 
127 1 2.04083 6.12248 48.97986 
128 1 0.00000 4.08165 53.06151 
129 1 0.00000 6.12248 55.10234 
130 1 2.04083 4.08165 55.10234 
131 1 2.04083 6.12248 53.06151 
132 1 0.00000 4.08165 57.14317 
133 1 0.00000 6.12248 59.18400 
134 1 2.04083 4.08165 59.18400 
135 1 2.04083 6.12248 57.14317 
136 1 0.00000 4.08165 61.22482 
137 1 0.00000 6.12248 63.26565 
138 1 2.04083 4.08165 63.26565 
139 1 2.04083 6.12248 61.22482 
140 1 0.00000 4.08165 65.30648 
141 1 0.00000 6.12248 67.34731 
142 1 2.04083 4.08165 67.34731 
143 1 2.04083 6.12248 65.30648 
144 1 0.00000 4.08165 69.38813 
145 1 0.00000 6.12248 71.42896 
146 1 2.04083 4.08165 71.42896 
147 1 2.04083 6.12248 69.38813 
148 1 0.00000 4.08165 73.46979 
149 1 0.00000 6.12248 75.51062 
150 1 2.04083 4.08165 75.51062 
151 1 2.04083 6.12248 73.46979 
152 1 0.00000 8.16331 0.00000 
153 1 0.00000 10.20414 2.04083 
154 1 2.04083 8.16331 2.04083 
155 1 2.04083 10.20414 0.00000 
156 1 0.00000 8.16331 4.08165 
157 1 0.00000 10.20414 6.12248 
158 1 2.04083 8.16331 6.12248 
159 1 2.04083 10.20414 4.08165 
160 1 0.00000 8.16331 8.16331 
161 1 0.00000 10.20414 10.20414 
162 1 2.04083 8.16331 10.20414 
163 1 2.04083 10.20414 8.16331 
164 1 0.00000 8.16331 12.24496 
165 1 0.00000 10.20414 14.28579 
166 1 2.04083 8.16331 14.28579 
167 1 2.04083 10.20414 12.24496 
168 1 0.00000 8.16331 16.32662 
169 1 0.00000 10.20414 18.36745 
170 1 2.04083 8.16331 18.36745 
171 1 2.04083 10.20414 16.32662 
172 1 0.00000 8.16331 20.40827 
173 1 0.00000 10.20414 22.44910 
174 1 2.04083 8.16331 22.44910 
175 1 2.04083 10.20414 20.40827 
176 1 0.00000 8.16331 24.48993 
177 1 0.00000 10.20414 26.53076 
178 1 2.04083 8.16331 26.53076 
179 1 2.04083 10.20414 24.48993 
180 1 0.00000 8.16331 28.57158 
181 1 0.00000 10.20414 30.61241 
182 1 2.04083 8.16331 30.61241 
183 1 2.04083 10.20414 28.57158 
184 1 0.00000 8.16331 32.65324 
185 1 0.00000 10.20414 34.69407 
186 1 2.04083 8.16331 34.69407 
187 1 2.04083 10.20414 32.65324 
188 1 0.00000 8.16331 36.73489 
189 1 0.00000 10.20414 38.77572 
190 1 2.04083 8.16331 38.77572 
191 1 2.04083 10.20414 36.73489 
192 1 0.00000 8.16331 40.81655 
193 1 0.00000 10.20414 42.85738 
194 1 2.04083 8.16331 42.85738 
195 1 2.04083 10.20414 40.81655 
196 1 0.00000 8.16331 44.89820 
197 1 0.00000 10.20414 46.93903 
198 1 2.04083 8.16331 46.93903 
199 1 2.04083 10.20414 44.89820 
200 1 0.00000 8.16331 48.97986 
201 1 0.00000 10.20414 51.02069 
202 1 2.04083 8.16331 51.02069 
203 1 2.04083 10.20414 48.97986 
204 1 0.00000 8.16331 53.06151 
205 1 0.00000 10.20414 55.10234 
206 1 2.04083 8.16331 55.10234 
207 1 2.04083 10.20414 53.06151 
208 1 0.00000 8.16331 57.14317 
209 1 0.00000 10.20414 59.18400 
210 1 2.04083 8.16331 59.18400 
211 1 2.04083 10.20414 57.14317 
212 1 0.00000 8.16331 61.22482 
213 1 0.00000 10.20414 63.26565 
214 1 2.04083 8.16331 63.26565 
215 1 2.04083 10.20414 61.22482 
216 1 0.00000 8.16331 65.30648 
217 1 0.00000 10.20414 67.34731 
218 1 2.04083 8.16331 67.34731 
219 1 2.04083 10.20414 65.30648 
220 1 0.00000 8.16331 69.38813 
221 1 0.00000 10.20414 71.42896 
222 1 2.04083 8.16331 71.42896 
223 1 2.04083 10.20414 69.38813 
224 1 0.00000 8.16331 73.46979 
225 1 0.00000 10.20414 75.51062 
226 1 2.04083 8.16331 75.51062 
227 1 2.04083 10.20414 73.46979 
228 1 0.00000 12.24496 0.00000 
229 1 0.00000 14.28579 2.04083 
230 1 2.04083 12.24496 2.04083 
231 1 2.04083 14.28579 0.00000 
232 1 0.00000 12.24496 4.08165 
233 1 0.00000 14.28579 6.12248 
234 1 2.04083 12.24496 6.12248 
235 1 2.04083 14.28579 4.08165 
236 1 0.00000 12.24496 8.16331 
237 1 0.00000 14.28579 10.20414 
238 1 2.04083 12.24496 10.20414 
239 1 2.04083 14.28579 8.16331 
240 1 0.00000 12.24496 12.24496 
241 1 0.00000 14.28579 14.28579 
242 1 2.04083 12.24496 14.28579 
243 1 2.04083 14.28579 12.24496 
244 1 0.00000 12.24496 16.32662 
245 1 0.00000 14.28579 18.36745 
246 1 2.04083 12.24496 18.36745 
247 1 2.04083 14.28579 16.32662 
248 1 0.00000 12.24496 20.40827 
249 1 0.00000 14.28579 22.44910 
250 1 2.04083 12.24496 22.44910 
251 1 2.04083 14.28579 20.40827 
252 1 0.00000 12.24496 24.48993 
253 1 0.00000 14.28579 26.53076 
254 1 2.04083 12.24496 26.53076 
255 1 2.04083 14.28579 24.48993 
256 1 0.00000 12.24496 28.57158 
257 1 0.00000 14.28579 30.61241 
258 1 2.04083 12.24496 30.61241 
259 1 2.04083 14.28579 28.57158 
260 1 0.00000 12.24496 32.65324 
261 1 0.00000 14.28579 34.69407 
262 1 2.04083 12.24496 34.69407 
263 1 2.04083 14.28579 32.65324 
264 1 0.00000 12.24496 36.73489 
265 1 0.00000 14.28579 38.77572 
266 1 2.04083 12.24496 38.77572 
267 1 2.04083 14.28579 36.73489 
268 1 0.00000 12.24496 40.81655 
269 1 0.00000 14.28579 42.85738 
270 1 2.04083 12.24496 42.85738 
271 1 2.04083 14.28579 40.81655 
272 1 0.00000 12.24496 44.89820 
273 1 0.00000 14.28579 46.93903 
274 1 2.04083 12.24496 46.93903 
275 1 2.04083 14.28579 44.89820 
276 1 0.00000 12.24496 48.97986 
277 1 0.00000 14.28579 51.02069 
278 1 2.04083 12.24496 51.02069 
279 1 2.04083 14.28579 48.97986 
280 1 0.00000 12.24496 53.06151 
281 1 0.00000 14.28579 55.10234 
282 1 2.04083 12.24496 55.10234 
283 1 2.04083 14.28579 53.06151 
284 1 0.00000 12.24496 57.14317 
285 1 0.00000 14.28579 59.18400 
286 1 2.04083 12.24496 59.18400 
287 1 2.04083 14.28579 57.14317 
288 1 0.00000 12.24496 61.22482 
289 1 0.00000 14.28579 63.26565 
290 1 2.04083 12.24496 63.26565 
291 1 2.04083 14.28579 61.22482 
292 1 0.00000 12.24496 65.30648 
293 1 0.00000 14.28579 67.34731 
294 1 2.04083 12.24496 67.34731 
295 1 2.04083 14.28579 65.30648 
296 1 0.00000 12.24496 69.38813 
297 1 0.00000 14.28579 71.42896 
298 1 2.04083 12.24496 71.42896 
299 1 2.04083 14.28579 69.38813 
300 1 0.00000 12.24496 73.46979 
301 1 0.00000 14.28579 75.51062 
302 1 2.04083 12.24496 75.51062 
303 1 2.04083 14.28579 73.46979 
304 1 0.00000 16.32662 0.00000 
305 1 0.00000 18.36745 2.04083 
306 1 2.04083 16.32662 2.04083 
307 1 2.04083 18.36745 0.00000 
308 1 0.00000 16.32662 4.08165 
309 1 0.00000 18.36745 6.12248 
310 1 2.04083 16.32662 6.12248 
311 1 2.04083 18.36745 4.08165 
312 1 0.00000 16.32662 8.16331 
313 1 0.00000 18.36745 10.20414 
314 1 2.04083 16.32662 10.20414 
315 1 2.04083 18.36745 8.16331 
316 1 0.00000 16.32662 12.24496 
317 1 0.00000 18.36745 14.28579 
318 1 2.04083 16.32662 14.28579 
319 1 2.04083 18.36745 12.24496 
320 1 0.00000 16.32662 16.32662 
321 1 0.00000 18.36745 18.36745 
322 1 2.04083 16.32662 18.36745 
323 1 2.04083 18.36745 16.32662 
324 1 0.00000 16.32662 20.40827 
325 1 0.00000 18.36745 22.44910 
326 1 2.04083 16.32662 22.44910 
327 1 2.04083 18.36745 20.40827 
328 1 0.00000 16.32662 24.48993 
329 1 0.00000 18.36745 26.53076 
330 1 2.04083 16.32662 26.53076 
331 1 2.04083 18.36745 24.48993 
332 1 0.00000 16.32662 28.57158 
333 1 0.00000 18.36745 30.61241 
334 1 2.04083 16.32662 30.61241 
335 1 2.04083 18.36745 28.57158 
336 1 0.00000 16.32662 32.65324 
337 1 0.00000 18.36745 34.69407 
338 1 2.04083 16.32662 34.69407 
339 1 2.04083 18.36745 32.65324 
340 1 0.00000 16.32662 36.73489 
341 1 0.00000 18.36745 38.77572 
342 1 2.04083 16.32662 38.77572 
343 1 2.04083 18.36745 36.73489 
344 1 0.00000 16.32662 40.81655 
345 1 0.00000 18.36745 42.85738 
346 1 2.04083 16.32662 42.85738 
347 1 2.04083 18.36745 40.81655 
348 1 0.00000 16.32662 44.89820 
349 1 0.00000 18.36745 46.93903 
350 1 2.04083 16.32662 46.93903 
351 1 2.04083 18.36745 44.89820 
352 1 0.00000 16.32662 48.97986 
353 1 0.00000 18.36745 51.02069 
354 1 2.04083 16.32662 51.02069 
355 1 2.04083 18.36745 48.97986 
356 1 0.00000 16.32662 53.06151 
357 1 0.00000 18.36745 55.10234 
358 1 2.04083 16.32662 55.10234 
359 1 2.04083 18.36745 53.06151 
360 1 0.00000 16.32662 57.14317 
361 1 0.00000 18.36745 59.18400 
362 1 2.04083 16.32662 59.18400 
363 1 2.04083 18.36745 57.14317 
364 1 0.00000 16.32662 61.22482 
365 1 0.00000 18.36745 63.26565 
366 1 2.04083 16.32662 63.26565 
367 1 2.04083 18.36745 61.22482 
368 1 0.00000 16.32662 65.30648 
369 1 0.00000 18.36745 67.34731 
370 1 2.04083 16.32662 67.34731 
371 1 2.04083 18.36745 65.30648 
372 1 0.00000 16.32662 69.38813 
373 1 0.00000 18.36745 71.42896 
374 1 2.04083 16.32662 71.42896 
375 1 2.04083 18.36745 69.38813 
376 1 0.00000 16.32662 73.46979 
377 1 0.00000 18.36745 75.51062 
378 1 2.04083 16.32662 75.51062 
379 1 2.04083 18.36745 73.46979 
380 1 0.00000 20.40827 0.00000 
381 1 0.00000 22.44910 2.04083 
382 1 2.04083 20.40827 2.04083 
383 1 2.04083 22.44910 0.00000 
384 1 0.00000 20.40827 4.08165 
385 1 0.00000 22.44910 6.12248 
386 1 2.04083 20.40827 6.12248 
387 1 2.04083 22.44910 4.08165 
388 1 0.00000 20.40827 8.16331 
389 1 0.00000 22.44910 10.20414 
390 1 2.04083 20.40827 10.20414 
391 1 2.04083 22.44910 8.16331 
392 1 0.00000 20.40827 12.24496 
393 1 0.00000 22.44910 14.28579 
394 1 2.04083 20.40827 14.28579 
395 1 2.04083 22.44910 12.24496 
396 1 0.00000 20.40827 16.32662 
397 1 0.00000 22.44910 18.36745 
398 1 2.04083 20.40827 18.36745 
399 1 2.04083 22.44910 16.32662 
400 1 0.00000 20.40827 20.40827 
401 1 0.00000 22.44910 22.44910 
402 1 2.04083 20.40827 22.44910 
403 1 2.04083 22.44910 20.40827 
404 1 0.00000 20.40827 24.48993 
405 1 0.00000 22.44910 26.53076 
406 1 2.04083 20.40827 26.53076 
407 1 2.04083 22.44910 24.48993 
408 1 0.00000 20.40827 28.57158 
409 1 0.00000 22.44910 30.61241 
410 1 2.04083 20.40827 30.61241 
411 1 2.04083 22.44910 28.57158 
412 1 0.00000 20.40827 32.65324 
413 1 0.00000 22.44910 34.69407 
414 1 2.04083 20.40827 34.69407 
415 1 2.04083 22.44910 32.65324 
416 1 0.00000 20.40827 36.73489 
417 1 0.00000 22.44910 38.77572 
418 1 2.04083 20.40827 38.77572 
419 1 2.04083 22.44910 36.73489 
420 1 0.00000 20.40827 40.81655 
421 1 0.00000 22.44910 42.85738 
422 1 2.04083 20.40827 42.85738 
423 1 2.04083 22.44910 40.81655 
424 1 0.00000 20.40827 44.89820 
425 1 0.00000 22.44910 46.93903 
426 1 2.04083 20.40827 46.93903 
427 1 2.04083 22.44910 44.89820 
428 1 0.00000 20.40827 48.97986 
429 1 0.00000 22.44910 51.02069 
430 1 2.04083 20.40827 51.02069 
431 1 2.04083 22.44910 48.97986 
432 1 0.00000 20.40827 53.06151 
433 1 0.00000 22.44910 55.10234 
434 1 2.04083 20.40827 55.10234 
435 1 2.04083 22.44910 53.06151 
436 1 0.00000 20.40827 57.14317 
437 1 0.00000 22.44910 59.18400 
438 1 2.04083 20.40827 59.18400 
439 1 2.04083 22.44910 57.14317 
440 1 0.00000 20.40827 61.22482 
441 1 0.00000 22.44910 63.26565 
442 1 2.04083 20.40827 63.26565 
443 1 2.04083 22.44910 61.22482 
444 1 0.00000 20.40827 65.30648 
445 1 0.00000 22.44910 67.34731 
446 1 2.04083 20.40827 67.34731 
447 1 2.04083 22.44910 65.30648 
448 1 0.00000 20.40827 69.38813 
449 1 0.00000 22.44910 71.42896 
450 1 2.04083 20.40827 71.42896 
451 1 2.04083 22.44910 69.38813 
452 1 0.00000 20.40827 73.46979 
453 1 0.00000 22.44910 75.51062 
454 1 2.04083 20.40827 75.51062 
455 1 2.04083 22.44910 73.46979 
456 1 0.00000 24.48993 0.00000 
457 1 0.00000 26.53076 2.04083 
458 1 2.04083 24.48993 2.04083 
459 1 2.04083 26.53076 0.00000 
460 1 0.00000 24.48993 4.08165 
461 1 0.00000 26.53076 6.12248 
462 1 2.04083 24.48993 6.12248 
463 1 2.04083 26.53076 4.08165 
464 1 0.00000 24.48993 8.16331 
465 1 0.00000 26.53076 10.20414 
466 1 2.04083 24.48993 10.20414 
467 1 2.04083 26.53076 8.16331 
468 1 0.00000 24.48993 12.24496 
469 1 0.00000 26.53076 14.28579 
470 1 2.04083 24.48993 14.28579 
471 1 2.04083 26.53076 12.24496 
472 1 0.00000 24.48993 16.32662 
473 1 0.00000 26.53076 18.36745 
474 1 2.04083 24.48993 18.36745 
475 1 2.04083 26.53076 16.32662 
476 1 0.00000 24.48993 20.40827 
477 1 0.00000 26.53076 22.44910 
478 1 2.04083 24.48993 22.44910 
479 1 2.04083 26.53076 20.40827 
480 1 0.00000 24.48993 24.48993 
481 1 0.00000 26.53076 26.53076 
482 1 2.04083 24.48993 26.53076 
483 1 2.04083 26.53076 24.48993 
484 1 0.00000 24.48993 28.57158 
485 1 0.00000 26.53076 30.61241 
486 1 2.04083 24.48993 30.61241 
487 1 2.04083 26.53076 28.57158 
488 1 0.00000 24.48993 32.65324 
489 1 0.00000 26.53076 34.69407 
490 1 2.04083 24.48993 34.69407 
491 1 2.04083 26.53076 32.65324 
492 1 0.00000 24.48993 36.73489 
493 1 0.00000 26.53076 38.77572 
494 1 2.04083 24.48993 38.77572 
495 1 2.04083 26.53076 36.73489 
496 1 0.00000 24.48993 40.81655 
497 1 0.00000 26.53076 42.85738 
498 1 2.04083 24.48993 42.85738 
499 1 2.04083 26.53076 40.81655 
500 1 0.00000 24.48993 44.89820 
501 1 0.00000 26.53076 46.93903 
502 1 2.04083 24.48993 46.93903 
503 1 2.04083 26.53076 44.89820 
504 1 0.00000 24.48993 48.97986 
505 1 0.00000 26.53076 51.02069 
506 1 2.04083 24.48993 51.02069 
507 1 2.04083 26.53076 48.97986 
508 1 0.00000 24.48993 53.06151 
509 1 0.00000 26.53076 55.10234 
510 1 2.04083 24.48993 55.10234 
511 1 2.04083 26.53076 53.06151 
512 1 0.00000 24.48993 57.14317 
513 1 0.00000 26.53076 59.18400 
514 1 2.04083 24.48993 59.18400 
515 1 2.04083 26.53076 57.14317 
516 1 0.00000 24.48993 61.22482 
517 1 0.00000 26.53076 63.26565 
518 1 2.04083 24.48993 63.26565 
519 1 2.04083 26.53076 61.22482 
520 1 0.00000 24.48993 65.30648 
521 1 0.00000 26.53076 67.34731 
522 1 2.04083 24.48993 67.34731 
523 1 2.04083 26.53076 65.30648 
524 1 0.00000 24.48993 69.38813 
525 1 0.00000 26.53076 71.42896 
526 1 2.04083 24.48993 71.42896 
527 1 2.04083 26.53076 69.38813 
528 1 0.00000 24.48993 73.46979 
529 1 0.00000 26.53076 75.51062 
530 1 2.04083 24.48993 75.51062 
531 1 2.04083 26.53076 73.46979 
532 1 0.00000 28.57158 0.00000 
533 1 0.00000 30.61241 2.04083 
534 1 2.04083 28.57158 2.04083 
535 1 2.04083 30.61241 0.00000 
536 1 0.00000 28.57158 4.08165 
537 1 0.00000 30.61241 6.12248 
538 1 2.04083 28.57158 6.12248 
539 1 2.04083 30.61241 4.08165 
540 1 0.00000 28.57158 8.16331 
541 1 0.00000 30.61241 10.20414 
542 1 2.04083 28.57158 10.20414 
543 1 2.04083 30.61241 8.16331 
544 1 0.00000 28.57158 12.24496 
545 1 0.00000 30.61241 14.28579 
546 1 2.04083 28.57158 14.28579 
547 1 2.04083 30.61241 12.24496 
548 1 0.00000 28.57158 16.32662 
549 1 0.00000 30.61241 18.36745 
550 1 2.04083 28.57158 18.36745 
551 1 2.04083 30.61241 16.32662 
552 1 0.00000 28.57158 20.40827 
553 1 0.00000 30.61241 22.44910 
554 1 2.04083 28.57158 22.44910 
555 1 2.04083 30.61241 20.40827 
556 1 0.00000 28.57158 24.48993 
557 1 0.00000 30.61241 26.53076 
558 1 2.04083 28.57158 26.53076 
559 1 2.04083 30.61241 24.48993 
560 1 0.00000 28.57158 28.57158 
561 1 0.00000 30.61241 30.61241 
562 1 2.04083 28.57158 30.61241 
563 1 2.04083 30.61241 28.57158 
564 1 0.00000 28.57158 32.65324 
565 1 0.00000 30.61241 34.69407 
566 1 2.04083 28.57158 34.69407 
567 1 2.04083 30.61241 32.65324 
568 1 0.00000 28.57158 36.73489 
569 1 0.00000 30.61241 38.77572 
570 1 2.04083 28.57158 38.77572 
571 1 2.04083 30.61241 36.73489 
572 1 0.00000 28.57158 40.81655 
573 1 0.00000 30.61241 42.85738 
574 1 2.04083 28.57158 42.85738 
575 1 2.04083 30.61241 40.81655 
576 1 0.00000 28.57158 44.89820 
577 1 0.00000 30.61241 46.93903 
578 1 2.04083 28.57158 46.93903 
579 1 2.04083 30.61241 44.89820 
580 1 0.00000 28.57158 48.97986 
581 1 0.00000 30.61241 51.02069 
582 1 2.04083 28.57158 51.02069 
583 1 2.04083 30.61241 48.97986 
584 1 0.00000 28.57158 53.06151 
585 1 0.00000 30.61241 55.10234 
586 1 2.04083 28.57158 55.10234 
587 1 2.04083 30.61241 53.06151 
588 1 0.00000 28.57158 57.14317 
589 1 0.00000 30.61241 59.18400 
590 1 2.04083 28.57158 59.18400 
591 1 2.04083 30.61241 57.14317 
592 1 0.00000 28.57158 61.22482 
593 1 0.00000 30.61241 63.26565 
594 1 2.04083 28.57158 63.26565 
595 1 2.04083 30.61241 61.22482 
596 1 0.00000 28.57158 65.30648 
597 1 0.00000 30.61241 67.34731 
598 1 2.04083 28.57158 67.34731 
599 1 2.04083 30.61241 65.30648 
600 1 0.00000 28.57158 69.38813 
601 1 0.00000 30.61241 71.42896 
602 1 2.04083 28.57158 71.42896 
603 1 2.04083 30.61241 69.38813 
604 1 0.00000 28.57158 73.46979 
605 1 0.00000 30.61241 75.51062 
606 1 2.04083 28.57158 75.51062 
607 1 2.04083 30.61241 73.46979 
608 1 0.00000 32.65324 0.00000 
609 1 0.00000 34.69407 2.04083 
610 1 2.04083 32.65324 2.04083 
611 1 2.04083 34.69407 0.00000 
612 1 0.00000 32.65324 4.08165 
613 1 0.00000 34.69407 6.12248 
614 1 2.04083 32.65324 6.12248 
615 1 2.04083 34.69407 4.08165 
616 1 0.00000 32.65324 8.16331 
617 1 0.00000 34.69407 10.20414 
618 1 2.04083 32.65324 10.20414 
619 1 2.04083 34.69407 8.16331 
620 1 0.00000 32.65324 12.24496 
621 1 0.00000 34.69407 14.28579 
622 1 2.04083 32.65324 14.28579 
623 1 2.04083 34.69407 12.24496 
624 1 0.00000 32.65324 16.32662 
625 1 0.00000 34.69407 18.36745 
626 1 2.04083 32.65324 18.36745 
627 1 2.04083 34.69407 16.32662 
628 1 0.00000 32.65324 20.40827 
629 1 0.00000 34.69407 22.44910 
630 1 2.04083 32.65324 22.44910 
631 1 2.04083 34.69407 20.40827 
632 1 0.00000 32.65324 24.48993 
633 1 0.00000 34.69407 26.53076 
634 1 2.04083 32.65324 26.53076 
635 1 2.04083 34.69407 24.48993 
636 1 0.00000 32.65324 28.57158 
637 1 0.00000 34.69407 30.61241 
638 1 2.04083 32.65324 30.61241 
639 1 2.04083 34.69407 28.57158 
640 1 0.00000 32.65324 32.65324 
641 1 0.00000 34.69407 34.69407 
642 1 2.04083 32.65324 34.69407 
643 1 2.04083 34.69407 32.65324 
644 1 0.00000 32.65324 36.73489 
645 1 0.00000 34.69407 38.77572 
646 1 2.04083 32.65324 38.77572 
647 1 2.04083 34.69407 36.73489 
648 1 0.00000 32.65324 40.81655 
649 1 0.00000 34.69407 42.85738 
650 1 2.04083 32.65324 42.85738 
651 1 2.04083 34.69407 40.81655 
652 1 0.00000 32.65324 44.89820 
653 1 0.00000 34.69407 46.93903 
654 1 2.04083 32.65324 46.93903 
655 1 2.04083 34.69407 44.89820 
656 1 0.00000 32.65324 48.97986 
657 1 0.00000 34.69407 51.02069 
658 1 2.04083 32.65324 51.02069 
659 1 2.04083 34.69407 48.97986 
660 1 0.00000 32.65324 53.06151 
661 1 0.00000 34.69407 55.10234 
662 1 2.04083 32.65324 55.10234 
663 1 2.04083 34.69407 53.06151 
664 1 0.00000 32.65324 57.14317 
665 1 0.00000 34.69407 59.18400 
666 1 2.04083 32.65324 59.18400 
667 1 2.04083 34.69407 57.14317 
668 1 0.00000 32.65324 61.22482 
669 1 0.00000 34.69407 63.26565 
670 1 2.04083 32.65324 63.26565 
671 1 2.04083 34.69407 61.22482 
672 1 0.00000 32.65324 65.30648 
673 1 0.00000 34.69407 67.34731 
674 1 2.04083 32.65324 67.34731 
675 1 2.04083 34.69407 65.30648 
676 1 0.00000 32.65324 69.38813 
677 1 0.00000 34.69407 71.42896 
678 1 2.04083 32.65324 71.42896 
679 1 2.04083 34.69407 69.38813 
680 1 0.00000 32.65324 73.46979 
681 1 0.00000 34.69407 75.51062 
682 1 2.04083 32.65324 75.51062 
683 1 2.04083 34.69407 73.46979 
684 1 0.00000 36.73489 0.00000 
685 1 0.00000 38.77572 2.04083 
686 1 2.04083 36.73489 2.04083 
687 1 2.04083 38.77572 0.00000 
688 1 0.00000 36.73489 4.08165 
689 1 0.00000 38.77572 6.12248 
690 1 2.04083 36.73489 6.12248 
691 1 2.04083 38.77572 4.08165 
692 1 0.00000 36.73489 8.16331 
693 1 0.00000 38.77572 10.20414 
694 1 2.04083 36.73489 10.20414 
695 1 2.04083 38.77572 8.16331 
696 1 0.00000 36.73489 12.24496 
697 1 0.00000 38.77572 14.28579 
698 1 2.04083 36.73489 14.28579 
699 1 2.04083 38.77572 12.24496 
700 1 0.00000 36.73489 16.32662 
701 1 0.00000 38.77572 18.36745 
702 1 2.04083 36.73489 18.36745 
703 1 2.04083 38.77572 16.32662 
704 1 0.00000 36.73489 20.40827 
705 1 0.00000 38.77572 22.44910 
706 1 2.04083 36.73489 22.44910 
707 1 2.04083 38.77572 20.40827 
708 1 0.00000 36.73489 24.48993 
709 1 0.00000 38.77572 26.53076 
710 1 2.04083 36.73489 26.53076 
711 1 2.04083 38.77572 24.48993 
712 1 0.00000 36.73489 28.57158 
713 1 0.00000 38.77572 30.61241 
714 1 2.04083 36.73489 30.61241 
715 1 2.04083 38.77572 28.57158 
716 1 0.00000 36.73489 32.65324 
717 1 0.00000 38.77572 34.69407 
718 1 2.04083 36.73489 34.69407 
719 1 2.04083 38.77572 32.65324 
720 1 0.00000 36.73489 36.73489 
721 1 0.00000 38.77572 38.77572 
722 1 2.04083 36.73489 38.77572 
723 1 2.04083 38.77572 36.73489 
724 1 0.00000 36.73489 40.81655 
725 1 0.00000 38.77572 42.85738 
726 1 2.04083 36.73489 42.85738 
727 1 2.04083 38.77572 40.81655 
728 1 0.00000 36.73489 44.89820 
729 1 0.00000 38.77572 46.93903 
730 1 2.04083 36.73489 46.93903 
731 1 2.04083 38.77572 44.89820 
732 1 0.00000 36.73489 48.97986 
733 1 0.00000 38.77572 51.02069 
734 1 2.04083 36.73489 51.02069 
735 1 2.04083 38.77572 48.97986 
736 1 0.00000 36.73489 53.06151 
737 1 0.00000 38.77572 55.10234 
738 1 2.04083 36.73489 55.10234 
739 1 2.04083 38.77572 53.06151 
740 1 0.00000 36.73489 57.14317 
741 1 0.00000 38.77572 59.18400 
742 1 2.04083 36.73489 59.18400 
743 1 2.04083 38.77572 57.14317 
744 1 0.00000 36.73489 61.22482 
745 1 0.00000 38.77572 63.26565 
746 1 2.04083 36.73489 63.26565 
747 1 2.04083 38.77572 61.22482 
748 1 0.00000 36.73489 65.30648 
749 1 0.00000 38.77572 67.34731 
750 1 2.04083 36.73489 67.34731 
751 1 2.04083 38.77572 65.30648 
752 1 0.00000 36.73489 69.38813 
753 1 0.00000 38.77572 71.42896 
754 1 2.04083 36.73489 71.42896 
755 1 2.04083 38.77572 69.38813 
756 1 0.00000 36.73489 73.46979 
757 1 0.00000 38.77572 75.51062 
758 1 2.04083 36.73489 75.51062 
759 1 2.04083 38.77572 73.46979 
760 1 0.00000 40.81655 0.00000 
761 1 0.00000 42.85738 2.04083 
762 1 2.04083 40.81655 2.04083 
763 1 2.04083 42.85738 0.00000 
764 1 0.00000 40.81655 4.08165 
765 1 0.00000 42.85738 6.12248 
766 1 2.04083 40.81655 6.12248 
767 1 2.04083 42.85738 4.08165 
768 1 0.00000 40.81655 8.16331 
769 1 0.00000 42.85738 10.20414 
770 1 2.04083 40.81655 10.20414 
771 1 2.04083 42.85738 8.16331 
772 1 0.00000 40.81655 12.24496 
773 1 0.00000 42.85738 14.28579 
774 1 2.04083 40.81655 14.28579 
775 1 2.04083 42.85738 12.24496 
776 1 0.00000 40.81655 16.32662 
777 1 0.00000 42.85738 18.36745 
778 1 2.04083 40.81655 18.36745 
779 1 2.04083 42.85738 16.32662 
780 1 0.00000 40.81655 20.40827 
781 1 0.00000 42.85738 22.44910 
782 1 2.04083 40.81655 22.44910 
783 1 2.04083 42.85738 20.40827 
784 1 0.00000 40.81655 24.48993 
785 1 0.00000 42.85738 26.53076 
786 1 2.04083 40.81655 26.53076 
787 1 2.04083 42.85738 24.48993 
788 1 0.00000 40.81655 28.57158 
789 1 0.00000 42.85738 30.61241 
790 1 2.04083 40.81655 30.61241 
791 1 2.04083 42.85738 28.57158 
792 1 0.00000 40.81655 32.65324 
793 1 0.00000 42.85738 34.69407 
794 1 2.04083 40.81655 34.69407 
795 1 2.04083 42.85738 32.65324 
796 1 0.00000 40.81655 36.73489 
797 1 0.00000 42.85738 38.77572 
798 1 2.04083 40.81655 38.77572 
799 1 2.04083 42.85738 36.73489 
800 1 0.00000 40.81655 40.81655 
801 1 0.00000 42.85738 42.85738 
802 1 2.04083 40.81655 42.85738 
803 1 2.04083 42.85738 40.81655 
804 1 0.00000 40.81655 44.89820 
805 1 0.00000 42.85738 46.93903 
806 1 2.04083 40.81655 46.93903 
807 1 2.04083 42.85738 44.89820 
808 1 0.00000 40.81655 48.97986 
809 1 0.00000 42.85738 51.02069 
810 1 2.04083 40.81655 51.02069 
811 1 2.04083 42.85738 48.97986 
812 1 0.00000 40.81655 53.06151 
813 1 0.00000 42.85738 55.10234 
814 1 2.04083 40.81655 55.10234 
815 1 2.04083 42.85738 53.06151 
816 1 0.00000 40.81655 57.14317 
817 1 0.00000 42.85738 59.18400 
818 1 2.04083 40.81655 59.18400 
819 1 2.04083 42.85738 57.14317 
820 1 0.00000 40.81655 61.22482 
821 1 0.00000 42.85738 63.26565 
822 1 2.04083 40.81655 63.26565 
823 1 2.04083 42.85738 61.22482 
824 1 0.00000 40.81655 65.30648 
825 1 0.00000 42.85738 67.34731 
826 1 2.04083 40.81655 67.34731 
827 1 2.04083 42.85738 65.30648 
828 1 0.00000 40.81655 69.38813 
829 1 0.00000 42.85738 71.42896 
830 1 2.04083 40.81655 71.42896 
831 1 2.04083 42.85738 69.38813 
832 1 0.00000 40.81655 73.46979 
833 1 0.00000 42.85738 75.51062 
834 1 2.04083 40.81655 75.51062 
835 1 2.04083 42.85738 73.46979 
836 1 0.00000 44.89820 0.00000 
837 1 0.00000 46.93903 2.04083 
838 1 2.04083 44.89820 2.04083 
839 1 2.04083 46.93903 0.00000 
840 1 0.00000 44.89820 4.08165 
841 1 0.00000 46.93903 6.12248 
842 1 2.04083 44.89820 6.12248 
843 1 2.04083 46.93903 4.08165 
844 1 0.00000 44.89820 8.16331 
845 1 0.00000 46.93903 10.20414 
846 1 2.04083 44.89820 10.20414 
847 1 2.04083 46.93903 8.16331 
848 1 0.00000 44.89820 12.24496 
849 1 0.00000 46.93903 14.28579 
850 1 2.04083 44.89820 14.28579 
851 1 2.04083 46.93903 12.24496 
852 1 0.00000 44.89820 16.32662 
853 1 0.00000 46.93903 18.36745 
854 1 2.04083 44.89820 18.36745 
855 1 2.04083 46.93903 16.32662 
856 1 0.00000 44.89820 20.40827 
857 1 0.00000 46.93903 22.44910 
858 1 2.04083 44.89820 22.44910 
859 1 2.04083 46.93903 20.40827 
860 1 0.00000 44.89820 24.48993 
861 1 0.00000 46.93903 26.53076 
862 1 2.04083 44.89820 26.53076 
863 1 2.04083 46.93903 24.48993 
864 1 0.00000 44.89820 28.57158 
865 1 0.00000 46.93903 30.61241 
866 1 2.04083 44.89820 30.61241 
867 1 2.04083 46.93903 28.57158 
868 1 0.00000 44.89820 32.65324 
869 1 0.00000 46.93903 34.69407 
870 1 2.04083 44.89820 34.69407 
871 1 2.04083 46.93903 32.65324 
872 1 0.00000 44.89820 36.73489 
873 1 0.00000 46.93903 38.77572 
874 1 2.04083 44.89820 38.77572 
875 1 2.04083 46.93903 36.73489 
876 1 0.00000 44.89820 40.81655 
877 1 0.00000 46.93903 42.85738 
878 1 2.04083 44.89820 42.85738 
879 1 2.04083 46.93903 40.81655 
880 1 0.00000 44.89820 44.89820 
881 1 0.00000 46.93903 46.93903 
882 1 2.04083 44.89820 46.93903 
883 1 2.04083 46.93903 44.89820 
884 1 0.00000 44.89820 48.97986 
885 1 0.00000 46.93903 51.02069 
886 1 2.04083 44.89820 51.02069 
887 1 2.04083 46.93903 48.97986 
888 1 0.00000 44.89820 53.06151 
889 1 0.00000 46.93903 55.10234 
890 1 2.04083 44.89820 55.10234 
891 1 2.04083 46.93903 53.06151 
892 1 0.00000 44.89820 57.14317 
893 1 0.00000 46.93903 59.18400 
894 1 2.04083 44.89820 59.18400 
895 1 2.04083 46.93903 57.14317 
896 1 0.00000 44.89820 61.22482 
897 1 0.00000 46.93903 63.26565 
898 1 2.04083 44.89820 63.26565 
899 1 2.04083 46.93903 61.22482 
900 1 0.00000 44.89820 65.30648 
901 1 0.00000 46.93903 67.34731 
902 1 2.04083 44.89820 67.34731 
903 1 2.04083 46.93903 65.30648 
904 1 0.00000 44.89820 69.38813 
905 1 0.00000 46.93903 71.42896 
906 1 2.04083 44.89820 71.42896 
907 1 2.04083 46.93903 69.38813 
908 1 0.00000 44.89820 73.46979 
909 1 0.00000 46.93903 75.51062 
910 1 2.04083 44.89820 75.51062 
911 1 2.04083 46.93903 73.46979 
912 1 0.00000 48.97986 0.00000 
913 1 0.00000 51.02069 2.04083 
914 1 2.04083 48.97986 2.04083 
915 1 2.04083 51.02069 0.00000 